 &FCI NORB=  5,NELEC=  4,MS2= 0,
  ORBSYM=1,1,1,1,1,
  ISYM=1,
  OCC=  2,  0,  0,  0,  0,  0,  0,  0,
  CLOSED=  2,  0,  0,  0,  0,  0,  0,  0,
 /
  0.2275333838239452E+01   1   1   1   1
 -0.2533301094134207E+00   2   1   1   1
  0.4429790773633208E-01   2   1   2   1
  0.5712363082501826E+00   2   2   1   1
 -0.1424375105326038E-01   2   2   2   1
  0.4041376197742524E+00   2   2   2   2
  0.0000000000000000E+00   3   1   1   1
  0.0000000000000000E+00   3   1   2   1
  0.0000000000000000E+00   3   1   2   2
  0.1559907856804019E-01   3   1   3   1
  0.0000000000000000E+00   3   2   1   1
  0.0000000000000000E+00   3   2   2   1
  0.0000000000000000E+00   3   2   2   2
  0.2056257123171827E-01   3   2   3   1
  0.8680897946091046E-01   3   2   3   2
  0.5692288364562782E+00   3   3   1   1
 -0.8939941750974845E-02   3   3   2   1
  0.4095969039448843E+00   3   3   2   2
  0.0000000000000000E+00   3   3   3   1
  0.0000000000000000E+00   3   3   3   2
  0.4498590410866716E+00   3   3   3   3
  0.0000000000000000E+00   4   1   1   1
  0.0000000000000000E+00   4   1   2   1
  0.0000000000000000E+00   4   1   2   2
  0.0000000000000000E+00   4   1   3   1
  0.0000000000000000E+00   4   1   3   2
  0.0000000000000000E+00   4   1   3   3
  0.1559907856804019E-01   4   1   4   1
  0.0000000000000000E+00   4   2   1   1
  0.0000000000000000E+00   4   2   2   1
  0.0000000000000000E+00   4   2   2   2
  0.0000000000000000E+00   4   2   3   1
  0.0000000000000000E+00   4   2   3   2
  0.0000000000000000E+00   4   2   3   3
  0.2056257123171827E-01   4   2   4   1
  0.8680897946091046E-01   4   2   4   2
  0.0000000000000000E+00   4   3   1   1
  0.0000000000000000E+00   4   3   2   1
  0.0000000000000000E+00   4   3   2   2
  0.0000000000000000E+00   4   3   3   1
  0.0000000000000000E+00   4   3   3   2
  0.0000000000000000E+00   4   3   3   3
  0.0000000000000000E+00   4   3   4   1
  0.0000000000000000E+00   4   3   4   2
  0.2424937922000000E-01   4   3   4   3
  0.5692288364562782E+00   4   4   1   1
 -0.8939941750974845E-02   4   4   2   1
  0.4095969039448843E+00   4   4   2   2
  0.0000000000000000E+00   4   4   3   1
  0.0000000000000000E+00   4   4   3   2
  0.4013602826443292E+00   4   4   3   3
  0.0000000000000000E+00   4   4   4   1
  0.0000000000000000E+00   4   4   4   2
  0.0000000000000000E+00   4   4   4   3
  0.4498590410866716E+00   4   4   4   4
  0.0000000000000000E+00   5   1   1   1
  0.0000000000000000E+00   5   1   2   1
  0.0000000000000000E+00   5   1   2   2
  0.0000000000000000E+00   5   1   3   1
  0.0000000000000000E+00   5   1   3   2
  0.0000000000000000E+00   5   1   3   3
  0.0000000000000000E+00   5   1   4   1
  0.0000000000000000E+00   5   1   4   2
  0.0000000000000000E+00   5   1   4   3
  0.0000000000000000E+00   5   1   4   4
  0.1559907856804019E-01   5   1   5   1
  0.0000000000000000E+00   5   2   1   1
  0.0000000000000000E+00   5   2   2   1
  0.0000000000000000E+00   5   2   2   2
  0.0000000000000000E+00   5   2   3   1
  0.0000000000000000E+00   5   2   3   2
  0.0000000000000000E+00   5   2   3   3
  0.0000000000000000E+00   5   2   4   1
  0.0000000000000000E+00   5   2   4   2
  0.0000000000000000E+00   5   2   4   3
  0.0000000000000000E+00   5   2   4   4
  0.2056257123171827E-01   5   2   5   1
  0.8680897946091046E-01   5   2   5   2
  0.0000000000000000E+00   5   3   1   1
  0.0000000000000000E+00   5   3   2   1
  0.0000000000000000E+00   5   3   2   2
  0.0000000000000000E+00   5   3   3   1
  0.0000000000000000E+00   5   3   3   2
  0.0000000000000000E+00   5   3   3   3
  0.0000000000000000E+00   5   3   4   1
  0.0000000000000000E+00   5   3   4   2
  0.0000000000000000E+00   5   3   4   3
  0.0000000000000000E+00   5   3   4   4
  0.0000000000000000E+00   5   3   5   1
  0.0000000000000000E+00   5   3   5   2
  0.2424937922000000E-01   5   3   5   3
  0.0000000000000000E+00   5   4   1   1
  0.0000000000000000E+00   5   4   2   1
  0.0000000000000000E+00   5   4   2   2
  0.0000000000000000E+00   5   4   3   1
  0.0000000000000000E+00   5   4   3   2
  0.0000000000000000E+00   5   4   3   3
  0.0000000000000000E+00   5   4   4   1
  0.0000000000000000E+00   5   4   4   2
  0.0000000000000000E+00   5   4   4   3
  0.0000000000000000E+00   5   4   4   4
  0.0000000000000000E+00   5   4   5   1
  0.0000000000000000E+00   5   4   5   2
  0.0000000000000000E+00   5   4   5   3
  0.2424937922000000E-01   5   4   5   4
  0.5692288364562782E+00   5   5   1   1
 -0.8939941750974845E-02   5   5   2   1
  0.4095969039448843E+00   5   5   2   2
  0.0000000000000000E+00   5   5   3   1
  0.0000000000000000E+00   5   5   3   2
  0.4013602826443292E+00   5   5   3   3
  0.0000000000000000E+00   5   5   4   1
  0.0000000000000000E+00   5   5   4   2
  0.0000000000000000E+00   5   5   4   3
  0.4013602826443292E+00   5   5   4   4
  0.0000000000000000E+00   5   5   5   1
  0.0000000000000000E+00   5   5   5   2
  0.0000000000000000E+00   5   5   5   3
  0.0000000000000000E+00   5   5   5   4
  0.4498590410866716E+00   5   5   5   5
 -0.7857500653536850E+01   1   1   0   0
  0.2675738604666811E+00   2   1   0   0
 -0.1756350022335039E+01   2   2   0   0
  0.0000000000000000E+00   3   1   0   0
  0.0000000000000000E+00   3   2   0   0
 -0.1634157465506606E+01   3   3   0   0
  0.0000000000000000E+00   4   1   0   0
  0.0000000000000000E+00   4   2   0   0
  0.0000000000000000E+00   4   3   0   0
 -0.1634157465506606E+01   4   4   0   0
  0.0000000000000000E+00   5   1   0   0
  0.0000000000000000E+00   5   2   0   0
  0.0000000000000000E+00   5   3   0   0
  0.0000000000000000E+00   5   4   0   0
 -0.1634157465506606E+01   5   5   0   0
  0.0000000000000000E+00   0   0   0   0
