 &FCI NORB= 24,NELEC=  6,MS2= 2,
  ORBSYM=1,1,1,1,1,1,1,1,1,1,1,2,2,2,2,3,3,3,3,3,3,3,4,4,
  ISYM=2,
  OCC=  2,  1,  1,  0,  0,  0,  0,  0,
  CLOSED=  1,  0,  1,  0,  0,  0,  0,  0,
  FOCK=    -11.246504900458,     -0.850667150852,     -0.468173724198,      0.270511073814,      0.449661450210,
       0.680226269798,      1.081116878111,      1.407091646275,      1.817189944088,      2.299885874299,      2.989976790537,     24.035225607979,     -0.402097746694,      0.454974560409,      1.438528619445,      1.900269072344,     -0.600404491975,      0.340278169578,      0.460247441876,      1.283065443828,      1.509055237231,      2.220690555293,      2.843567334587,      1.211837253923,
 /
  0.5593138609476831E+00   1   1   1   1
  0.2780672640725245E-01   2   1   1   1
  0.6327404058748146E-01   2   1   2   1
  0.4774391580874131E+00   2   2   1   1
 -0.6616639812473393E-01   2   2   2   1
  0.5974063321835812E+00   2   2   2   2
 -0.5971343354551555E-01   3   1   1   1
 -0.3427925263011740E-02   3   1   2   1
 -0.5910425683881889E-01   3   1   2   2
  0.4385133395158874E-01   3   1   3   1
  0.1530885800646791E-02   3   2   1   1
 -0.1632557963280467E-01   3   2   2   1
  0.2113590778781639E-01   3   2   2   2
  0.8356496727439506E-02   3   2   3   1
  0.1294686594749620E-01   3   2   3   2
  0.3688579483169781E+00   3   3   1   1
  0.1510015491635013E-01   3   3   2   1
  0.3268023889331647E+00   3   3   2   2
 -0.4965485154165727E-02   3   3   3   1
  0.6280329725182249E-02   3   3   3   2
  0.3231860259644078E+00   3   3   3   3
 -0.6056655622666535E-01   4   1   1   1
 -0.1856777671428135E-01   4   1   2   1
 -0.2567891827600398E-01   4   1   2   2
  0.2313043110345310E-01   4   1   3   1
  0.1093306786675090E-01   4   1   3   2
 -0.1697594502524433E-01   4   1   3   3
  0.3275364895044443E-01   4   1   4   1
 -0.1026476055509827E+00   4   2   1   1
  0.1780308519149337E-01   4   2   2   1
 -0.1325412775363885E+00   4   2   2   2
  0.3256850217234675E-01   4   2   3   1
 -0.7556718473276876E-02   4   2   3   2
 -0.3607978838174552E-01   4   2   3   3
  0.2063292800834462E-01   4   2   4   1
  0.7218714223123779E-01   4   2   4   2
  0.4799815984626631E-01   4   3   1   1
  0.2072565611167301E-01   4   3   2   1
  0.8913754902399661E-02   4   3   2   2
 -0.5259307820592654E-02   4   3   3   1
 -0.2007056037159130E-03   4   3   3   2
  0.3091699712782437E-01   4   3   3   3
 -0.1470094767431217E-01   4   3   4   1
 -0.1325288724693686E-01   4   3   4   2
  0.2304746877788167E-01   4   3   4   3
  0.3957663766571612E+00   4   4   1   1
  0.4989578816801461E-02   4   4   2   1
  0.3990083662458210E+00   4   4   2   2
 -0.4569455741104350E-01   4   4   3   1
 -0.2133184155047006E-02   4   4   3   2
  0.2933374330472652E+00   4   4   3   3
 -0.3116593233594827E-01   4   4   4   1
 -0.6772171618920293E-01   4   4   4   2
  0.1912849965830540E-01   4   4   4   3
  0.3479863618615144E+00   4   4   4   4
 -0.7796774479336457E-01   5   1   1   1
  0.9132581736126985E-02   5   1   2   1
 -0.7012180047808939E-01   5   1   2   2
  0.9276756334798332E-02   5   1   3   1
 -0.7768688075953338E-02   5   1   3   2
 -0.2858875926128145E-01   5   1   3   3
  0.1727948767330727E-01   5   1   4   1
  0.3985059793227036E-01   5   1   4   2
 -0.1168657823513894E-01   5   1   4   3
 -0.3765178338921801E-01   5   1   4   4
  0.4471486947396151E-01   5   1   5   1
  0.4653095326313239E-01   5   2   1   1
 -0.3360218016424646E-02   5   2   2   1
  0.5306325952017314E-01   5   2   2   2
 -0.1705435207494949E-01   5   2   3   1
  0.6462464937484130E-02   5   2   3   2
  0.1717216370510353E-01   5   2   3   3
  0.3322197328882979E-02   5   2   4   1
 -0.3468398855661402E-01   5   2   4   2
  0.5379929562965624E-02   5   2   4   3
  0.3422327776413765E-01   5   2   4   4
 -0.1589853468920871E-01   5   2   5   1
  0.3984403382356303E-01   5   2   5   2
 -0.1048829569645461E-02   5   3   1   1
 -0.1782975145906386E-01   5   3   2   1
  0.2625795420900754E-01   5   3   2   2
 -0.2776397834517644E-02   5   3   3   1
  0.1984051379828447E-02   5   3   3   2
 -0.3237858939149378E-02   5   3   3   3
 -0.4739600547610384E-02   5   3   4   1
 -0.1224384788774686E-01   5   3   4   2
 -0.1949444143271842E-02   5   3   4   3
  0.6024374216242799E-02   5   3   4   4
 -0.1121142055560242E-01   5   3   5   1
 -0.1060429725528693E-02   5   3   5   2
  0.1576129471334541E-01   5   3   5   3
  0.1966952416157557E-01   5   4   1   1
  0.4009975639389222E-01   5   4   2   1
 -0.4868958109734633E-01   5   4   2   2
 -0.5447095458525508E-02   5   4   3   1
 -0.7991106425274203E-02   5   4   3   2
  0.9659399285851371E-02   5   4   3   3
 -0.5168880684580620E-02   5   4   4   1
  0.1344717296596189E-01   5   4   4   2
  0.1354608647342890E-01   5   4   4   3
  0.2938200759728336E-02   5   4   4   4
  0.8405837683595969E-02   5   4   5   1
  0.6506554085953069E-02   5   4   5   2
 -0.1790751305138050E-01   5   4   5   3
  0.4168573142071236E-01   5   4   5   4
  0.4235799542178380E+00   5   5   1   1
 -0.1467013630995148E-01   5   5   2   1
  0.4299026986268408E+00   5   5   2   2
 -0.4064925047601614E-01   5   5   3   1
  0.6155005495665469E-02   5   5   3   2
  0.3082612528429049E+00   5   5   3   3
 -0.2405053628893083E-01   5   5   4   1
 -0.6720772943948643E-01   5   5   4   2
  0.1218913251334561E-01   5   5   4   3
  0.3422238608986815E+00   5   5   4   4
 -0.4092601432131535E-01   5   5   5   1
  0.2954606477715804E-01   5   5   5   2
  0.2595987404745759E-02   5   5   5   3
 -0.6816135199763373E-02   5   5   5   4
  0.3816916205674999E+00   5   5   5   5
 -0.1558562344895061E-01   6   1   1   1
  0.1629159345395118E-02   6   1   2   1
 -0.3172416032028367E-01   6   1   2   2
  0.3901456538496358E-01   6   1   3   1
  0.8709541619550922E-02   6   1   3   2
  0.3551454809044863E-02   6   1   3   3
  0.1783093210636373E-01   6   1   4   1
  0.2491296759009328E-01   6   1   4   2
 -0.6068472808938529E-02   6   1   4   3
 -0.2787248088030311E-01   6   1   4   4
 -0.2467303753414279E-02   6   1   5   1
 -0.1374125594709511E-01   6   1   5   2
 -0.9199665525664272E-02   6   1   5   3
 -0.5931393795734052E-03   6   1   5   4
 -0.1080243881021448E-01   6   1   5   5
  0.5239824390871706E-01   6   1   6   1
  0.9347286335262757E-02   6   2   1   1
 -0.1380011332065736E-01   6   2   2   1
  0.2540589053230113E-01   6   2   2   2
  0.7010170121362634E-02   6   2   3   1
  0.1152024719666890E-01   6   2   3   2
  0.6574780575059981E-02   6   2   3   3
  0.9880697496141264E-02   6   2   4   1
 -0.9855906529304475E-02   6   2   4   2
 -0.4023424663548141E-02   6   2   4   3
  0.2677382004428485E-02   6   2   4   4
 -0.1025535405833141E-01   6   2   5   1
  0.9476929869545183E-02   6   2   5   2
  0.1122380381142210E-02   6   2   5   3
 -0.7444544270085718E-02   6   2   5   4
  0.1126336607750043E-01   6   2   5   5
  0.1173000370625210E-01   6   2   6   1
  0.1524633850415592E-01   6   2   6   2
  0.1138270803624729E+00   6   3   1   1
  0.1031173332796463E-01   6   3   2   1
  0.8703129061026461E-01   6   3   2   2
 -0.1951326011022267E-01   6   3   3   1
  0.1853754585424625E-03   6   3   3   2
  0.4368422336980446E-01   6   3   3   3
 -0.2200559879363082E-01   6   3   4   1
 -0.3397431463583672E-01   6   3   4   2
  0.1296096408933274E-01   6   3   4   3
  0.6078719446278436E-01   6   3   4   4
 -0.2833880891861382E-01   6   3   5   1
  0.1241727861311235E-01   6   3   5   2
 -0.1806189440046513E-02   6   3   5   3
  0.3209834545560585E-02   6   3   5   4
  0.6774762985273303E-01   6   3   5   5
  0.9052331385373397E-03   6   3   6   1
  0.6209976923623989E-02   6   3   6   2
  0.5175934087436332E-01   6   3   6   3
  0.4209068536703391E-01   6   4   1   1
  0.1864199251981824E-01   6   4   2   1
  0.1007003739008732E-01   6   4   2   2
 -0.1624694993120232E-01   6   4   3   1
 -0.8898200104905253E-02   6   4   3   2
  0.1483660716370192E-01   6   4   3   3
 -0.1929469744153884E-01   6   4   4   1
 -0.1133870988778190E-01   6   4   4   2
  0.1031934989662666E-01   6   4   4   3
  0.2275294096803180E-01   6   4   4   4
 -0.6496818686803548E-02   6   4   5   1
  0.2544503425769822E-02   6   4   5   2
 -0.1903149788895109E-02   6   4   5   3
  0.1194717304134858E-01   6   4   5   4
  0.1576233672883721E-01   6   4   5   5
 -0.1234463754028739E-01   6   4   6   1
 -0.7118919607907614E-02   6   4   6   2
  0.1743330420224017E-01   6   4   6   3
  0.1740246824429308E-01   6   4   6   4
 -0.1422816055915972E-01   6   5   1   1
 -0.1801049004315861E-01   6   5   2   1
  0.2442513699880640E-01   6   5   2   2
 -0.1696680972752675E-01   6   5   3   1
 -0.3341295269080891E-03   6   5   3   2
 -0.1460835935817984E-01   6   5   3   3
 -0.1533659812696953E-02   6   5   4   1
 -0.1151665491031459E-01   6   5   4   2
 -0.5818805248660875E-02   6   5   4   3
  0.8932233985741660E-02   6   5   4   4
  0.3689543561767331E-02   6   5   5   1
  0.4050704488505970E-02   6   5   5   2
  0.8935178079079800E-02   6   5   5   3
 -0.1094270860323828E-01   6   5   5   4
  0.5317262976446097E-02   6   5   5   5
 -0.2549534526075848E-01   6   5   6   1
 -0.2758056391506426E-02   6   5   6   2
 -0.7341610098580656E-02   6   5   6   3
 -0.3445393054196067E-03   6   5   6   4
  0.2212919249720985E-01   6   5   6   5
  0.4435983243903859E+00   6   6   1   1
  0.2524766148082837E-01   6   6   2   1
  0.3734121717643475E+00   6   6   2   2
 -0.1079720012707236E-01   6   6   3   1
  0.1081009770962917E-01   6   6   3   2
  0.3437125992006501E+00   6   6   3   3
 -0.3095189561213216E-01   6   6   4   1
 -0.5841706195640591E-01   6   6   4   2
  0.4051588168454826E-01   6   6   4   3
  0.3227909427187810E+00   6   6   4   4
 -0.5689068675325851E-01   6   6   5   1
  0.2386010371535899E-01   6   6   5   2
 -0.7717611824589188E-02   6   6   5   3
  0.1362025874833667E-01   6   6   5   4
  0.3464872437755328E+00   6   6   5   5
  0.2102684526207715E-01   6   6   6   1
  0.1658046049386322E-01   6   6   6   2
  0.8054062269640827E-01   6   6   6   3
  0.2211435043807300E-01   6   6   6   4
 -0.2981089788480869E-01   6   6   6   5
  0.4125845400659988E+00   6   6   6   6
  0.1155453931479167E-01   7   1   1   1
  0.2609808946095780E-01   7   1   2   1
  0.9638110753867451E-02   7   1   2   2
 -0.5272869212674672E-02   7   1   3   1
 -0.5934217715747953E-02   7   1   3   2
  0.1773343365135610E-02   7   1   3   3
 -0.4268002842013880E-02   7   1   4   1
 -0.3225888656299390E-02   7   1   4   2
  0.5967376621806022E-02   7   1   4   3
  0.1736771550697057E-01   7   1   4   4
  0.7203944209463041E-02   7   1   5   1
  0.5662362657274211E-02   7   1   5   2
 -0.4782009661451782E-02   7   1   5   3
  0.9615908451189000E-02   7   1   5   4
 -0.2673848740468291E-02   7   1   5   5
 -0.3484507403885919E-02   7   1   6   1
 -0.3989289376278134E-02   7   1   6   2
  0.4976549431841747E-02   7   1   6   3
  0.4849335297160143E-02   7   1   6   4
 -0.2839501719676220E-02   7   1   6   5
  0.7782514461994923E-02   7   1   6   6
  0.4439567991802175E-01   7   1   7   1
  0.3057527561447856E-01   7   2   1   1
  0.5445913908580188E-01   7   2   2   1
 -0.7745068348884525E-01   7   2   2   2
 -0.2267252757344643E-02   7   2   3   1
 -0.1260871029736219E-01   7   2   3   2
  0.1694842271439708E-01   7   2   3   3
 -0.1545272682697285E-01   7   2   4   1
  0.2353310232212998E-01   7   2   4   2
  0.1982463367225088E-01   7   2   4   3
 -0.5888615011603996E-02   7   2   4   4
  0.7420093907580954E-02   7   2   5   1
 -0.3679191594759365E-02   7   2   5   2
 -0.1641364605655245E-01   7   2   5   3
  0.3872711167397577E-01   7   2   5   4
 -0.1065618234773486E-01   7   2   5   5
  0.2807228316670844E-02   7   2   6   1
 -0.1172077252434872E-01   7   2   6   2
  0.9333517768560513E-02   7   2   6   3
  0.1709944651264690E-01   7   2   6   4
 -0.1767826634161760E-01   7   2   6   5
  0.2518152449135723E-01   7   2   6   6
  0.8907633681733931E-02   7   2   7   1
  0.7365861544442032E-01   7   2   7   2
 -0.7685179679043482E-02   7   3   1   1
  0.1039787965793818E-03   7   3   2   1
 -0.1150010842856068E-01   7   3   2   2
 -0.2760648955476674E-02   7   3   3   1
  0.3751617723190795E-02   7   3   3   2
 -0.8321639480072765E-02   7   3   3   3
  0.3780266007200193E-02   7   3   4   1
  0.7202222228537352E-02   7   3   4   2
 -0.1074702612988211E-02   7   3   4   3
 -0.3662590029680822E-02   7   3   4   4
  0.4090417870417170E-02   7   3   5   1
 -0.9252742530212690E-03   7   3   5   2
 -0.2220500987425594E-02   7   3   5   3
  0.3753317480865655E-02   7   3   5   4
 -0.2006139433171118E-02   7   3   5   5
 -0.9337285072591635E-03   7   3   6   1
  0.3123479243114683E-02   7   3   6   2
 -0.7969119400168222E-03   7   3   6   3
 -0.1744862933994533E-02   7   3   6   4
  0.2959210689389714E-02   7   3   6   5
 -0.5693074757530026E-02   7   3   6   6
 -0.9557851693913470E-03   7   3   7   1
  0.4520203127797716E-02   7   3   7   2
  0.1531892005619086E-01   7   3   7   3
  0.9795530399108864E-02   7   4   1   1
 -0.1787210189907658E-01   7   4   2   1
  0.4014112520019381E-01   7   4   2   2
  0.1103456464524008E-02   7   4   3   1
  0.1007651033380546E-01   7   4   3   2
  0.6106220643338391E-02   7   4   3   3
  0.9030703231931270E-02   7   4   4   1
 -0.1532131308234335E-01   7   4   4   2
 -0.2079237993233243E-02   7   4   4   3
  0.1045143388128753E-01   7   4   4   4
 -0.7970983840065858E-02   7   4   5   1
  0.1251596344372919E-01   7   4   5   2
  0.4375945786292381E-02   7   4   5   3
 -0.9893430121276074E-02   7   4   5   4
  0.1494047441934176E-01   7   4   5   5
  0.1360288392818682E-02   7   4   6   1
  0.1020967635088912E-01   7   4   6   2
  0.2442447598218128E-02   7   4   6   3
 -0.6968997202503571E-02   7   4   6   4
  0.3493698708711134E-02   7   4   6   5
  0.8784617737604529E-02   7   4   6   6
 -0.2043527900452254E-02   7   4   7   1
 -0.2048524155336897E-01   7   4   7   2
  0.2722019139915569E-02   7   4   7   3
  0.1476655693143230E-01   7   4   7   4
  0.9517294607975815E-02   7   5   1   1
  0.6648600312396401E-02   7   5   2   1
 -0.3871080184899693E-02   7   5   2   2
  0.1487502070642934E-02   7   5   3   1
 -0.3743365480468868E-02   7   5   3   2
  0.4035845189859659E-02   7   5   3   3
 -0.3777721572647307E-02   7   5   4   1
  0.7175727759815568E-02   7   5   4   2
  0.2121586436025357E-02   7   5   4   3
  0.2201282528246861E-02   7   5   4   4
 -0.3110263065199605E-02   7   5   5   1
 -0.4021738692971170E-02   7   5   5   2
  0.8811409867269061E-03   7   5   5   3
  0.2791529307054586E-02   7   5   5   4
 -0.3449287951505711E-04   7   5   5   5
  0.2877792006047410E-02   7   5   6   1
 -0.4291606308143760E-02   7   5   6   2
  0.3456799632706061E-02   7   5   6   3
  0.2063748959917772E-02   7   5   6   4
 -0.4478047031989691E-02   7   5   6   5
  0.6186666238606711E-02   7   5   6   6
  0.2011685950202675E-02   7   5   7   1
  0.7816503866322060E-02   7   5   7   2
 -0.2888508573435125E-02   7   5   7   3
 -0.3619402090977286E-02   7   5   7   4
  0.1096826670882224E-01   7   5   7   5
 -0.8295277106870339E-02   7   6   1   1
  0.1062424579727935E-02   7   6   2   1
 -0.1375760559947993E-01   7   6   2   2
  0.3977923459590006E-02   7   6   3   1
  0.4193566998552245E-02   7   6   3   2
 -0.1359750276416034E-02   7   6   3   3
  0.3663820680868295E-02   7   6   4   1
  0.9328378438904278E-02   7   6   4   2
 -0.1018391857529081E-03   7   6   4   3
 -0.8349077376993639E-02   7   6   4   4
  0.3223441340675869E-02   7   6   5   1
 -0.4955440671042418E-02   7   6   5   2
 -0.3866697889549561E-03   7   6   5   3
  0.1237584667946249E-02   7   6   5   4
 -0.6111165664573857E-02   7   6   5   5
  0.3751796715254681E-02   7   6   6   1
  0.4742289851768434E-02   7   6   6   2
 -0.1335166645522584E-02   7   6   6   3
 -0.2325639610963910E-02   7   6   6   4
 -0.5835978729146468E-03   7   6   6   5
  0.1374950680421951E-02   7   6   6   6
  0.6495041891841408E-03   7   6   7   1
  0.5026470246683136E-02   7   6   7   2
  0.1188758459732007E-01   7   6   7   3
  0.1838708307763679E-02   7   6   7   4
 -0.2189460588012000E-02   7   6   7   5
  0.1541105400645480E-01   7   6   7   6
  0.4949161096571142E+00   7   7   1   1
 -0.9842296987928462E-03   7   7   2   1
  0.4863372192183973E+00   7   7   2   2
 -0.4002090683235365E-01   7   7   3   1
  0.1059148992863278E-01   7   7   3   2
  0.3503829019257927E+00   7   7   3   3
 -0.3140029426509636E-01   7   7   4   1
 -0.8866212098226807E-01   7   7   4   2
  0.3000177605299195E-01   7   7   4   3
  0.3709670465980240E+00   7   7   4   4
 -0.5385738060091920E-01   7   7   5   1
  0.4002152825922184E-01   7   7   5   2
  0.3311456852197470E-03   7   7   5   3
 -0.1155007333286079E-02   7   7   5   4
  0.4019808645373288E+00   7   7   5   5
 -0.6262866514015919E-02   7   7   6   1
  0.1593751926612927E-01   7   7   6   2
  0.9259779142539493E-01   7   7   6   3
  0.2298311686279739E-01   7   7   6   4
 -0.8108913712836480E-02   7   7   6   5
  0.4051333342562956E+00   7   7   6   6
  0.1718628587525395E-01   7   7   7   1
 -0.3714654956542801E-02   7   7   7   2
 -0.8090244044906332E-02   7   7   7   3
  0.2140101412565135E-01   7   7   7   4
  0.5537601069342882E-02   7   7   7   5
 -0.6610868382685549E-02   7   7   7   6
  0.4900783546597294E+00   7   7   7   7
 -0.1233192793043562E-01   8   1   1   1
 -0.4235835530197625E-02   8   1   2   1
 -0.1075338305503609E-01   8   1   2   2
  0.3345975826939277E-02   8   1   3   1
  0.1019502958569569E-01   8   1   3   2
  0.3319748084081692E-03   8   1   3   3
  0.9238798674737373E-02   8   1   4   1
  0.7665294020217784E-02   8   1   4   2
  0.3384144522190855E-03   8   1   4   3
 -0.9252891419156849E-02   8   1   4   4
  0.6566961754301963E-02   8   1   5   1
 -0.1320256411761960E-02   8   1   5   2
 -0.2121676059873946E-02   8   1   5   3
 -0.6858916585777493E-03   8   1   5   4
 -0.4743374740727612E-02   8   1   5   5
  0.6464942030152470E-03   8   1   6   1
  0.1011565702337423E-01   8   1   6   2
  0.5143938622350179E-03   8   1   6   3
 -0.4582150278346434E-02   8   1   6   4
  0.2740549067595277E-02   8   1   6   5
  0.3001729836610993E-02   8   1   6   6
 -0.4329361814833925E-02   8   1   7   1
  0.3551697330978259E-02   8   1   7   2
  0.1776473674779817E-01   8   1   7   3
  0.6243722610386310E-02   8   1   7   4
 -0.6388873726767198E-02   8   1   7   5
  0.1882973653572602E-01   8   1   7   6
 -0.5166703417447250E-02   8   1   7   7
  0.3281427867301605E-01   8   1   8   1
 -0.2030928969985549E-01   8   2   1   1
 -0.1311596095113844E-01   8   2   2   1
  0.5120404723975002E-02   8   2   2   2
  0.2063580300116408E-01   8   2   3   1
  0.5866923123082825E-02   8   2   3   2
 -0.1553256356762505E-02   8   2   3   3
  0.1326510605110453E-01   8   2   4   1
  0.6191093015630835E-02   8   2   4   2
 -0.5162688809542700E-02   8   2   4   3
 -0.1182216938708261E-01   8   2   4   4
 -0.9475979529204905E-03   8   2   5   1
 -0.4569208845555717E-02   8   2   5   2
  0.3345587714190343E-02   8   2   5   3
 -0.1076675256294670E-01   8   2   5   4
 -0.8499602384208960E-02   8   2   5   5
  0.2041419562586941E-01   8   2   6   1
  0.4328966277516402E-02   8   2   6   2
 -0.7021525527434146E-02   8   2   6   3
 -0.9422818365301389E-02   8   2   6   4
 -0.5625771544304169E-02   8   2   6   5
 -0.2727740147332311E-02   8   2   6   6
  0.1502382136689104E-02   8   2   7   1
 -0.2227667941084036E-01   8   2   7   2
 -0.1558301561812199E-02   8   2   7   3
  0.8785492726841745E-02   8   2   7   4
  0.4450147244660627E-03   8   2   7   5
  0.1346197514172361E-02   8   2   7   6
 -0.7741762017714854E-03   8   2   7   7
 -0.3159685083846499E-02   8   2   8   1
  0.2663782182191983E-01   8   2   8   2
 -0.7549081071564464E-03   8   3   1   1
  0.2665953342357149E-01   8   3   2   1
 -0.2288747809311933E-01   8   3   2   2
  0.5713429709742543E-02   8   3   3   1
 -0.3314771993869259E-02   8   3   3   2
  0.2640406230188206E-02   8   3   3   3
  0.1092761437371890E-02   8   3   4   1
  0.9337615232769695E-02   8   3   4   2
  0.7634773626010781E-02   8   3   4   3
  0.3917127160536596E-02   8   3   4   4
  0.5656994999408872E-02   8   3   5   1
  0.2493620961229568E-02   8   3   5   2
 -0.8273014820247511E-02   8   3   5   3
  0.1541992221085907E-01   8   3   5   4
 -0.1186836767032558E-01   8   3   5   5
  0.8188221641140700E-02   8   3   6   1
 -0.3234119311161868E-02   8   3   6   2
  0.1760142710137674E-02   8   3   6   3
  0.3391359189507909E-02   8   3   6   4
 -0.8581389978441028E-02   8   3   6   5
  0.7122033887021578E-02   8   3   6   6
  0.2768390997972333E-01   8   3   7   1
  0.1563337767991948E-01   8   3   7   2
  0.2623539661733829E-02   8   3   7   3
 -0.3014423867644629E-02   8   3   7   4
  0.3196594974239904E-02   8   3   7   5
  0.1450768023731251E-02   8   3   7   6
 -0.3406883825323394E-02   8   3   7   7
 -0.1702511652951651E-02   8   3   8   1
  0.4136160828553675E-02   8   3   8   2
  0.2879880763541753E-01   8   3   8   3
  0.3209068907297161E-01   8   4   1   1
  0.1201359666254557E-01   8   4   2   1
  0.1235798998629142E-01   8   4   2   2
 -0.3331816876001082E-02   8   4   3   1
 -0.9698211311054382E-03   8   4   3   2
  0.1741824337058430E-01   8   4   3   3
 -0.1068939611380712E-01   8   4   4   1
 -0.8575042307270516E-02   8   4   4   2
  0.1140070906043973E-01   8   4   4   3
  0.1467231186777260E-01   8   4   4   4
 -0.8054364825616517E-02   8   4   5   1
  0.7186925249880738E-03   8   4   5   2
  0.8786743297720737E-03   8   4   5   3
  0.3834378482896244E-02   8   4   5   4
  0.1123134112099520E-01   8   4   5   5
 -0.1949428248003402E-02   8   4   6   1
 -0.1537079507310933E-02   8   4   6   2
  0.1061808074492691E-01   8   4   6   3
  0.6565773261567503E-02   8   4   6   4
 -0.3300020704584728E-02   8   4   6   5
  0.2471381602799750E-01   8   4   6   6
  0.7905181855131506E-02   8   4   7   1
  0.1320978829787860E-01   8   4   7   2
 -0.6454917764562636E-03   8   4   7   3
 -0.2630445564604928E-02   8   4   7   4
  0.2341867538233985E-02   8   4   7   5
 -0.4347355704677454E-03   8   4   7   6
  0.2202028198326872E-01   8   4   7   7
 -0.8496344768716127E-03   8   4   8   1
 -0.4705023728465445E-02   8   4   8   2
  0.6703010036962116E-02   8   4   8   3
  0.1041176534537272E-01   8   4   8   4
  0.1231977573601229E-01   8   5   1   1
 -0.6759954036235903E-02   8   5   2   1
  0.1309448587089636E-01   8   5   2   2
 -0.5804602649312485E-03   8   5   3   1
  0.2259709126993848E-02   8   5   3   2
  0.2521320344009690E-02   8   5   3   3
 -0.3346136637246138E-02   8   5   4   1
 -0.6318624311585483E-02   8   5   4   2
  0.1286864829033720E-02   8   5   4   3
  0.2511860567324848E-02   8   5   4   4
 -0.7091519445437012E-02   8   5   5   1
 -0.2059163830282744E-02   8   5   5   2
  0.2230530263611277E-02   8   5   5   3
 -0.5320478684306410E-02   8   5   5   4
  0.9747198317481517E-02   8   5   5   5
  0.2498509413706304E-02   8   5   6   1
 -0.8456296156628997E-04   8   5   6   2
  0.2371744595772676E-02   8   5   6   3
 -0.4597850534179505E-03   8   5   6   4
 -0.4295503782043729E-03   8   5   6   5
  0.4657253315907912E-02   8   5   6   6
 -0.8153171619979246E-02   8   5   7   1
 -0.3793156215600293E-02   8   5   7   2
 -0.3786342044596446E-03   8   5   7   3
  0.1925429580569831E-02   8   5   7   4
 -0.1316743438177282E-02   8   5   7   5
 -0.3093337905652241E-02   8   5   7   6
  0.1090999511933230E-01   8   5   7   7
 -0.3375739777105155E-02   8   5   8   1
  0.2150943036971135E-02   8   5   8   2
 -0.6088696165181784E-02   8   5   8   3
  0.1049809844425496E-02   8   5   8   4
  0.9823259471794571E-02   8   5   8   5
 -0.1356347878291009E-01   8   6   1   1
  0.2734097308801255E-01   8   6   2   1
 -0.3661902802190141E-01   8   6   2   2
  0.1403891018163876E-01   8   6   3   1
 -0.3267593650792176E-02   8   6   3   2
  0.2542964821039562E-02   8   6   3   3
  0.1478279380991347E-02   8   6   4   1
  0.1403360404636973E-01   8   6   4   2
  0.7076661007530537E-02   8   6   4   3
 -0.9000533353204320E-02   8   6   4   4
  0.9062137032926493E-02   8   6   5   1
 -0.5575848139493491E-02   8   6   5   2
 -0.7850227876574578E-02   8   6   5   3
  0.1142468094501637E-01   8   6   5   4
 -0.2141558830003917E-01   8   6   5   5
  0.1461553214865168E-01   8   6   6   1
 -0.2261257057508008E-02   8   6   6   2
 -0.1773596443505616E-02   8   6   6   3
  0.2217669823829215E-02   8   6   6   4
 -0.1213398514843336E-01   8   6   6   5
  0.7478805531406107E-02   8   6   6   6
  0.2758121120324295E-01   8   6   7   1
  0.1638481670381324E-01   8   6   7   2
 -0.2368289800063136E-03   8   6   7   3
 -0.5177789569865956E-02   8   6   7   4
  0.1368479046326091E-03   8   6   7   5
  0.4230744184507178E-02   8   6   7   6
 -0.1235910525000823E-01   8   6   7   7
  0.3209874141393843E-03   8   6   8   1
  0.6516073715597768E-02   8   6   8   2
  0.2659450718244461E-01   8   6   8   3
  0.6644951066365613E-02   8   6   8   4
 -0.6628196042346030E-02   8   6   8   5
  0.3381478520686396E-01   8   6   8   6
 -0.3178094930886902E-01   8   7   1   1
  0.1757976635600494E-01   8   7   2   1
 -0.6996846403643520E-01   8   7   2   2
  0.4122828610213543E-01   8   7   3   1
  0.3581731100763437E-02   8   7   3   2
  0.3377319944937043E-02   8   7   3   3
  0.1620013500500616E-01   8   7   4   1
  0.3154033120203840E-01   8   7   4   2
  0.3278986390931516E-02   8   7   4   3
 -0.3136600295320226E-01   8   7   4   4
  0.1325780922174336E-02   8   7   5   1
 -0.8388297185740931E-02   8   7   5   2
 -0.6328304787398126E-02   8   7   5   3
  0.1105893020204926E-01   8   7   5   4
 -0.3379590036646286E-01   8   7   5   5
  0.4249158834543201E-01   8   7   6   1
  0.3988857509279891E-02   8   7   6   2
 -0.1033629449111696E-01   8   7   6   3
 -0.7808542840179980E-02   8   7   6   4
 -0.2266304697370629E-01   8   7   6   5
  0.5655421540143034E-02   8   7   6   6
  0.3393739572682477E-02   8   7   7   1
  0.2018075948455522E-01   8   7   7   2
 -0.1954726137318117E-02   8   7   7   3
 -0.1259771164294379E-02   8   7   7   4
  0.6768485045787840E-02   8   7   7   5
  0.2879948519166601E-02   8   7   7   6
 -0.3051250118959593E-01   8   7   7   7
 -0.2758118979878724E-02   8   7   8   1
  0.2056289427522947E-01   8   7   8   2
  0.1853619631717823E-01   8   7   8   3
  0.2972197087938801E-02   8   7   8   4
 -0.1030042580835170E-02   8   7   8   5
  0.2328402015170074E-01   8   7   8   6
  0.6623572255819773E-01   8   7   8   7
  0.4920324604646770E+00   8   8   1   1
  0.8333613066064186E-03   8   8   2   1
  0.4561546570465567E+00   8   8   2   2
 -0.3889321757476000E-01   8   8   3   1
  0.1352554120264235E-01   8   8   3   2
  0.3555468128199955E+00   8   8   3   3
 -0.3208380944809770E-01   8   8   4   1
 -0.7964119178552501E-01   8   8   4   2
  0.3538720493032327E-01   8   8   4   3
  0.3613652746005348E+00   8   8   4   4
 -0.5566021171337584E-01   8   8   5   1
  0.3701836819642060E-01   8   8   5   2
 -0.1934540727362100E-02   8   8   5   3
  0.5825339375402999E-02   8   8   5   4
  0.3962528955470659E+00   8   8   5   5
 -0.6620739642439089E-02   8   8   6   1
  0.1742772422405667E-01   8   8   6   2
  0.9469669494776711E-01   8   8   6   3
  0.2588445632654324E-01   8   8   6   4
 -0.1006733656495426E-01   8   8   6   5
  0.4122267699551694E+00   8   8   6   6
 -0.3677531520140474E-03   8   8   7   1
  0.1705393383985805E-01   8   8   7   2
  0.2565437352421431E-02   8   8   7   3
  0.1773548527319513E-01   8   8   7   4
  0.4745777543867943E-02   8   8   7   5
  0.2967186322668604E-02   8   8   7   6
  0.4711999839228302E+00   8   8   7   7
  0.1054436473474539E-01   8   8   8   1
 -0.1172386896307001E-01   8   8   8   2
 -0.8487487745867248E-02   8   8   8   3
  0.2471735096356760E-01   8   8   8   4
  0.1103367553595760E-01   8   8   8   5
 -0.1898076608722854E-01   8   8   8   6
 -0.2779212811999451E-01   8   8   8   7
  0.4865271002826203E+00   8   8   8   8
 -0.6916496004804653E-02   9   1   1   1
  0.2824497555813279E-02   9   1   2   1
  0.5961827202300138E-02   9   1   2   2
 -0.5671316785006895E-02   9   1   3   1
 -0.3725381532201325E-02   9   1   3   2
  0.1061346361866182E-01   9   1   3   3
 -0.5393472668065307E-02   9   1   4   1
 -0.7357854754899786E-02   9   1   4   2
  0.6590971288885456E-02   9   1   4   3
  0.8568791802595574E-02   9   1   4   4
  0.6247274836401859E-02   9   1   5   1
 -0.1489613375536234E-03   9   1   5   2
 -0.1567593103696096E-03   9   1   5   3
 -0.2056675250182050E-02   9   1   5   4
 -0.4974629023702124E-02   9   1   5   5
 -0.1608798200367185E-01   9   1   6   1
 -0.5321170768039386E-02   9   1   6   2
  0.4156593905445476E-02   9   1   6   3
  0.8169971381110931E-02   9   1   6   4
  0.5972945015876946E-02   9   1   6   5
  0.3417107543046362E-02   9   1   6   6
  0.3368175483240714E-02   9   1   7   1
 -0.5499150873275200E-02   9   1   7   2
 -0.6146396093660427E-02   9   1   7   3
 -0.2930635625269950E-02   9   1   7   4
 -0.2501011372433570E-02   9   1   7   5
 -0.4678513210201244E-02   9   1   7   6
 -0.3378218634571435E-02   9   1   7   7
  0.5903538011631076E-03   9   1   8   1
 -0.5473919173455122E-02   9   1   8   2
  0.1688198719712933E-02   9   1   8   3
  0.2085167670900319E-02   9   1   8   4
 -0.5655344731704169E-02   9   1   8   5
  0.4316315584816505E-02   9   1   8   6
 -0.1281541944579350E-01   9   1   8   7
 -0.2112234404041575E-03   9   1   8   8
  0.3224167067100491E-01   9   1   9   1
  0.1606347492411965E-01   9   2   1   1
  0.1759685186998665E-01   9   2   2   1
 -0.2239092339991266E-01   9   2   2   2
 -0.6960661630993049E-02   9   2   3   1
 -0.8605694529797370E-02   9   2   3   2
  0.1061913360390788E-01   9   2   3   3
 -0.1361149063347514E-01   9   2   4   1
 -0.4754082168106008E-03   9   2   4   2
  0.1062466421697580E-01   9   2   4   3
  0.6342070664092750E-02   9   2   4   4
 -0.3136642201756478E-02   9   2   5   1