 &FCI NORB= 23,NELEC=  7,MS2= 1,
  ORBSYM=1,1,1,1,1,1,1,1,1,1,1,1,1,1,1,1,1,1,1,1,1,1,1,
  ISYM=1,
  OCC=  4,  0,  0,  0,  0,  0,  0,  0,
  CLOSED=  3,  0,  0,  0,  0,  0,  0,  0,
  FOCK=    -20.976020999445,     -1.518220343359,     -0.799332034720,     -0.797374512556,     -0.935355518704,
      -0.321991130442,     -0.285850728802,      0.304657013640,      0.355689296311,      0.781111249312,      0.857921798629,      0.880207317852,      0.975762610449,      1.108463797078,      1.117861167717,      1.171575251952,      1.183032637083,      1.440560078059,      1.705964274858,      2.576372051662,      2.579935517936,      2.602275050704,      2.650831308948,
 /
  0.7843290565618867E+00   1   1   1   1
 -0.1141773102786749E-14   2   1   1   1
  0.1209151631877367E+00   2   1   2   1
  0.6388428872179612E+00   2   2   1   1
  0.1874856606770559E-15   2   2   2   1
  0.5784212739096418E+00   2   2   2   2
 -0.2498057613944818E-01   3   1   1   1
  0.3724369987759268E-15   3   1   2   1
 -0.8208133842257031E-02   3   1   2   2
  0.1314827110662147E+00   3   1   3   1
  0.1351446820289297E-14   3   2   1   1
  0.7645536383737998E-02   3   2   2   1
  0.1990866374519130E-14   3   2   2   2
 -0.1481228537720224E-14   3   2   3   1
  0.3790681276873183E-01   3   2   3   2
  0.6768909430101751E+00   3   3   1   1
 -0.2207598253506360E-14   3   3   2   1
  0.5539728359976379E+00   3   3   2   2
 -0.3713572127701514E-01   3   3   3   1
  0.2018784445168009E-15   3   3   3   2
  0.6382277391469503E+00   3   3   3   3
  0.1503877140714519E-15   4   1   1   1
  0.1310492337614955E-15   4   1   2   1
  0.4759472507266980E-16   4   1   2   2
  0.1866526122243450E-15   4   1   3   1
  0.2361034365827167E-16   4   1   3   2
  0.1199212648487778E-15   4   1   3   3
  0.1566070248330785E+00   4   1   4   1
  0.4179875282521763E-15   4   2   1   1
 -0.5252352467809993E-16   4   2   2   1
  0.2995835765901251E-15   4   2   2   2
 -0.4771996252670321E-16   4   2   3   1
 -0.3890327197474821E-16   4   2   3   2
  0.2920928063261626E-15   4   2   3   3
 -0.5769914354400634E-15   4   2   4   1
  0.3008497137631285E-01   4   2   4   2
  0.7082618517098127E-15   4   3   1   1
 -0.5306377151826153E-16   4   3   2   1
  0.4291429246613678E-15   4   3   2   2
 -0.5346978514667538E-16   4   3   3   1
 -0.1753172945731226E-16   4   3   3   2
  0.5768570746735001E-15   4   3   3   3
 -0.1366788271581694E-01   4   3   4   1
  0.1673755103224627E-15   4   3   4   2
  0.3461585844444545E-01   4   3   4   3
  0.7780205591924154E+00   4   4   1   1
 -0.1501809744272609E-14   4   4   2   1
  0.6135598630063879E+00   4   4   2   2
 -0.3443931319996425E-01   4   4   3   1
  0.1397753440768312E-14   4   4   3   2
  0.6525321931137902E+00   4   4   3   3
  0.4993228375576723E-15   4   4   4   1
  0.4807910403801945E-15   4   4   4   2
  0.7694026494012883E-15   4   4   4   3
  0.8342897677723814E+00   4   4   4   4
 -0.7349769380558206E-01   5   1   1   1
 -0.1340541447378968E-14   5   1   2   1
 -0.4859889235670340E-01   5   1   2   2
 -0.5054261351846616E-01   5   1   3   1
  0.8342935717275957E-16   5   1   3   2
 -0.4557912002280697E-01   5   1   3   3
  0.3379871628456910E-15   5   1   4   1
 -0.6166898041341440E-16   5   1   4   2
 -0.1839608233933571E-15   5   1   4   3
 -0.7232349899241852E-01   5   1   4   4
  0.3734409419017296E-01   5   1   5   1
 -0.4722086932157146E-14   5   2   1   1
  0.9826931432203811E-02   5   2   2   1
 -0.1475795043693409E-14   5   2   2   2
 -0.5309626029863582E-16   5   2   3   1
  0.1170768668307842E-01   5   2   3   2
 -0.5127732834125964E-14   5   2   3   3
  0.1766154779103609E-17   5   2   4   1
 -0.6120990147571212E-16   5   2   4   2
 -0.8847937579246930E-16   5   2   4   3
 -0.4512283502839362E-14   5   2   4   4
  0.7704950501404018E-15   5   2   5   1
  0.4480534468047938E-01   5   2   5   2
 -0.1738730807694468E+00   5   3   1   1
  0.7768986192216443E-17   5   3   2   1
 -0.1039766211795794E+00   5   3   2   2
  0.1593521963215836E-01   5   3   3   1
 -0.2100519736446260E-14   5   3   3   2
 -0.1458699364883635E+00   5   3   3   3
 -0.2449031033539122E-15   5   3   4   1
 -0.1856084829505998E-15   5   3   4   2
 -0.2286628091751936E-15   5   3   4   3
 -0.1668226565125565E+00   5   3   4   4
  0.2896774542189786E-01   5   3   5   1
  0.3420386803648645E-15   5   3   5   2
  0.8584693465344839E-01   5   3   5   3
  0.1151042540059938E-14   5   4   1   1
 -0.8402550890856482E-16   5   4   2   1
  0.7004911869337199E-15   5   4   2   2
 -0.2515596236230452E-15   5   4   3   1
 -0.1120561474953976E-15   5   4   3   2
  0.7896662670426679E-15   5   4   3   3
 -0.2231117979654941E-01   5   4   4   1
 -0.3345460982286939E-15   5   4   4   2
 -0.1306755207374953E-01   5   4   4   3
  0.1258924244540189E-14   5   4   4   4
 -0.1888815969592203E-15   5   4   5   1
 -0.1658610574043703E-15   5   4   5   2
 -0.4839368383176544E-15   5   4   5   3
  0.1118812567233899E-01   5   4   5   4
  0.3724956211912980E+00   5   5   1   1
  0.3410086883010033E-15   5   5   2   1
  0.3649582635964179E+00   5   5   2   2
  0.3225080652695180E-01   5   5   3   1
 -0.8667112166849122E-15   5   5   3   2
  0.3684090750976191E+00   5   5   3   3
 -0.1675333271410273E-15   5   5   4   1
 -0.2144356347928513E-16   5   5   4   2
 -0.3221480969984598E-16   5   5   4   3
  0.3596913164596990E+00   5   5   4   4
 -0.2001426057167702E-01   5   5   5   1
 -0.1668803983889688E-14   5   5   5   2
 -0.5042163622683539E-02   5   5   5   3
  0.4375266763696187E-16   5   5   5   4
  0.3629634893021594E+00   5   5   5   5
 -0.8656797398398412E-15   6   1   1   1
 -0.6259609490828684E-01   6   1   2   1
 -0.2208466553042200E-16   6   1   2   2
  0.1879354563478716E-14   6   1   3   1
  0.6642277897965270E-02   6   1   3   2
 -0.1055688283057283E-14   6   1   3   3
  0.2546315324917441E-15   6   1   4   1
 -0.2500424983169044E-16   6   1   4   2
 -0.1550734229318498E-16   6   1   4   3
 -0.8230969740829585E-15   6   1   4   4
  0.4770997778704572E-16   6   1   5   1
  0.7096234944866435E-02   6   1   5   2
  0.8671160984336998E-16   6   1   5   3
 -0.5782353544858268E-16   6   1   5   4
 -0.2898422143314189E-15   6   1   5   5
  0.3771783486799402E-01   6   1   6   1
 -0.2044985104294131E+00   6   2   1   1
  0.2438965303048872E-14   6   2   2   1
 -0.1474700196193039E+00   6   2   2   2
  0.3099327834333682E-01   6   2   3   1
  0.4483582559042243E-15   6   2   3   2
 -0.1464205928204533E+00   6   2   3   3
 -0.1423602983169024E-15   6   2   4   1
 -0.1848785324528537E-15   6   2   4   2
 -0.3434860542454955E-15   6   2   4   3
 -0.1973308495211264E+00   6   2   4   4
  0.2731243234176920E-01   6   2   5   1
  0.4289374844895777E-14   6   2   5   2
  0.8604771448246515E-01   6   2   5   3
 -0.5663691749768186E-15   6   2   5   4
  0.1640097775441544E-02   6   2   5   5
  0.1761743826994219E-15   6   2   6   1
  0.1157734034149569E+00   6   2   6   2
  0.6029456040490805E-14   6   3   1   1
  0.2514645147154877E-01   6   3   2   1
  0.4959100089485800E-14   6   3   2   2
 -0.2080008833628497E-14   6   3   3   1
  0.3554652016930180E-02   6   3   3   2
  0.3778952465823799E-14   6   3   3   3
 -0.3765319638850289E-17   6   3   4   1
 -0.1296432620386925E-15   6   3   4   2
 -0.9268513804388333E-17   6   3   4   3
  0.5836993160300089E-14   6   3   4   4
 -0.6829592772393533E-15   6   3   5   1
  0.3626520883286759E-01   6   3   5   2
 -0.4232481335894600E-14   6   3   5   3
 -0.1621718198413412E-15   6   3   5   4
 -0.1420528656971997E-14   6   3   5   5
 -0.5151992753324328E-02   6   3   6   1
 -0.1739751463551709E-14   6   3   6   2
  0.3428172823064591E-01   6   3   6   3
  0.7708998441090061E-15   6   4   1   1
 -0.1315754511049760E-15   6   4   2   1
  0.4171681836233411E-15   6   4   2   2
 -0.1012713459164291E-15   6   4   3   1
 -0.1356654795698793E-15   6   4   3   2
  0.5394294516641216E-15   6   4   3   3
 -0.2464521507262335E-15   6   4   4   1
 -0.1736543630925623E-01   6   4   4   2
  0.5325891961718911E-15   6   4   4   3
  0.8717337042008712E-15   6   4   4   4
 -0.1249121715208752E-15   6   4   5   1
 -0.2357955528849653E-15   6   4   5   2
 -0.3530291460844653E-15   6   4   5   3
  0.1961531602291294E-16   6   4   5   4
 -0.7013319349024684E-16   6   4   5   5
  0.1095696151188442E-16   6   4   6   1
 -0.4346940323728454E-15   6   4   6   2
 -0.1480690459084373E-15   6   4   6   3
  0.1060819044469613E-01   6   4   6   4
  0.1024997132731230E-16   6   5   1   1
  0.3917591747408621E-01   6   5   2   1
  0.3571370115344701E-14   6   5   2   2
 -0.1324017528643931E-14   6   5   3   1
  0.4411642921425526E-01   6   5   3   2
 -0.3375431576320232E-14   6   5   3   3
 -0.1511633282717418E-16   6   5   4   1
 -0.2727453173867399E-15   6   5   4   2
 -0.1630677977545584E-15   6   5   4   3
  0.1426014456145716E-16   6   5   4   4
 -0.1418949593240404E-15   6   5   5   1
  0.6628578475191274E-01   6   5   5   2
 -0.3312102111671655E-14   6   5   5   3
 -0.3102520702736035E-15   6   5   5   4
 -0.3006389376177442E-14   6   5   5   5
  0.9827806401335674E-03   6   5   6   1
  0.3197989833017556E-14   6   5   6   2
  0.5414518330042667E-01   6   5   6   3
 -0.3468244569236910E-15   6   5   6   4
  0.1351059461112717E+00   6   5   6   5
  0.3924737391273219E+00   6   6   1   1
  0.1290173480203438E-14   6   6   2   1
  0.3914740622885574E+00   6   6   2   2
  0.1027644192722290E-01   6   6   3   1
  0.3699297812520541E-15   6   6   3   2
  0.3746216208685645E+00   6   6   3   3
 -0.7242699106170312E-16   6   6   4   1
 -0.6075856297566657E-16   6   6   4   2
  0.5408065025445457E-16   6   6   4   3
  0.3787925314824797E+00   6   6   4   4
 -0.1355793768821822E-01   6   6   5   1
  0.1625435896990268E-14   6   6   5   2
 -0.5476041135243359E-02   6   6   5   3
  0.5081165206015091E-16   6   6   5   4
  0.3608591026647632E+00   6   6   5   5
 -0.1610040226140974E-15   6   6   6   1
 -0.1617722566667407E-01   6   6   6   2
  0.1817990202823694E-14   6   6   6   3
 -0.9357753137593551E-17   6   6   6   4
  0.3205768983605140E-14   6   6   6   5
  0.3713602921790201E+00   6   6   6   6
 -0.1357775795581298E-01   7   1   1   1
  0.4680890413775660E-15   7   1   2   1
 -0.1318047310246544E-01   7   1   2   2
  0.8101234194028851E-02   7   1   3   1
  0.2936155008362307E-16   7   1   3   2
 -0.1385249333249762E-01   7   1   3   3
 -0.1090140418821546E-16   7   1   4   1
 -0.5315250486289431E-18   7   1   4   2
  0.1753878003759033E-17   7   1   4   3
 -0.1216764835547574E-01   7   1   4   4
 -0.2663631298014600E-02   7   1   5   1
  0.9856753000608842E-16   7   1   5   2
  0.4452866897637259E-03   7   1   5   3
 -0.8745230682120690E-17   7   1   5   4
 -0.9335430082488952E-02   7   1   5   5
 -0.7294308928575133E-16   7   1   6   1
  0.1888641346516032E-02   7   1   6   2
  0.2904306569545545E-16   7   1   6   3
  0.6119151309128213E-17   7   1   6   4
  0.2565764441186946E-15   7   1   6   5
 -0.1166630794869621E-01   7   1   6   6
  0.2316132811295601E-02   7   1   7   1
  0.1316883390473933E-14   7   2   1   1
 -0.1173388578605495E-01   7   2   2   1
 -0.5051876448138382E-15   7   2   2   2
  0.1586615529984656E-15   7   2   3   1
 -0.1199858673408600E-01   7   2   3   2
  0.1921872704405936E-14   7   2   3   3
 -0.5845669301956293E-17   7   2   4   1
  0.7615584051571683E-16   7   2   4   2
  0.4543561064947320E-16   7   2   4   3
  0.1372672258837168E-14   7   2   4   4
 -0.2282889318121900E-15   7   2   5   1
 -0.2078342519145121E-01   7   2   5   2
  0.1241411487495903E-15   7   2   5   3
  0.1066628431197750E-15   7   2   5   4
  0.2339653938859632E-15   7   2   5   5
 -0.5056240882027275E-03   7   2   6   1
 -0.2023527829672633E-14   7   2   6   2
 -0.1787487141945852E-01   7   2   6   3
  0.1053594904238983E-15   7   2   6   4
 -0.3764466312083087E-01   7   2   6   5
 -0.1386258359062049E-14   7   2   6   6
 -0.1233279971202261E-17   7   2   7   1
  0.1932916879749803E-01   7   2   7   2
  0.2179887829980305E-01   7   3   1   1
  0.1787773149463344E-15   7   3   2   1
  0.2398443335125455E-02   7   3   2   2
 -0.8520380423224318E-02   7   3   3   1
  0.1051730317419564E-14   7   3   3   2
  0.1509912072592018E-01   7   3   3   3
  0.5098590466481082E-16   7   3   4   1
  0.5358752743100740E-16   7   3   4   2
  0.7899101481616669E-16   7   3   4   3
  0.2310704659836752E-01   7   3   4   4
 -0.5136376533965374E-02   7   3   5   1
  0.2964615315390051E-15   7   3   5   2
 -0.2136332321975955E-01   7   3   5   3
  0.1240698386382149E-15   7   3   5   4
 -0.2156025337593372E-01   7   3   5   5
 -0.7711387951803150E-17   7   3   6   1
 -0.2340911074792167E-01   7   3   6   2
  0.1465746469510310E-14   7   3   6   3
  0.1144131850394456E-15   7   3   6   4
  0.1702576881562612E-14   7   3   6   5
 -0.2108973998696046E-01   7   3   6   6
  0.2230392809394266E-02   7   3   7   1
 -0.3603074869712453E-15   7   3   7   2
  0.1449533407830721E-01   7   3   7   3
  0.4465152395385971E-17   7   4   1   1
  0.5507283778025876E-16   7   4   2   1
  0.7532039484982211E-16   7   4   2   2
  0.4022666099134553E-16   7   4   3   1
  0.7638281915542259E-16   7   4   3   2
  0.5099484587036651E-16   7   4   3   3
  0.1879505418423892E-02   7   4   4   1
  0.1378021093577974E-15   7   4   4   2
  0.3039414860893934E-02   7   4   4   3
 -0.2139986792555656E-16   7   4   4   4
  0.1828116162476715E-16   7   4   5   1
  0.1358417313777446E-15   7   4   5   2
  0.7642117207343031E-16   7   4   5   3
 -0.9603918831282920E-03   7   4   5   4
  0.1512887335383961E-15   7   4   5   5
  0.1926231089343530E-16   7   4   6   1
  0.8676664475412446E-16   7   4   6   2
  0.1160476406600089E-15   7   4   6   3
 -0.2861669048563132E-16   7   4   6   4
  0.2441121574600946E-15   7   4   6   5
  0.1536489569612090E-15   7   4   6   6
 -0.1500277429210545E-16   7   4   7   1
 -0.1021820821339957E-15   7   4   7   2
 -0.7163791518854387E-16   7   4   7   3
  0.1141528875723483E-02   7   4   7   4
 -0.4013548337491648E-01   7   5   1   1
 -0.1943737326041278E-15   7   5   2   1
 -0.5221811955431698E-01   7   5   2   2
 -0.8750305396130177E-02   7   5   3   1
  0.4805997180085120E-15   7   5   3   2
 -0.4704978826166496E-01   7   5   3   3
  0.4320008925182845E-16   7   5   4   1
  0.6126374472773151E-16   7   5   4   2
  0.5721042718497640E-16   7   5   4   3
 -0.3584841068497792E-01   7   5   4   4
 -0.1168974342244028E-02   7   5   5   1
  0.2363560736018400E-16   7   5   5   2
 -0.1549908679219769E-01   7   5   5   3
  0.9193711513545639E-16   7   5   5   4
 -0.7063909853023884E-01   7   5   5   5
  0.1198585501682725E-15   7   5   6   1
 -0.2004415179532118E-01   7   5   6   2
  0.1042894069713807E-14   7   5   6   3
  0.1223576075857929E-15   7   5   6   4
  0.8628080888639644E-15   7   5   6   5
 -0.7097727271176987E-01   7   5   6   6
  0.7163563114618853E-02   7   5   7   1
  0.2682316174729138E-15   7   5   7   2
  0.2318584108166099E-01   7   5   7   3
 -0.1410639593386385E-15   7   5   7   4
  0.5400779333773679E-01   7   5   7   5
 -0.4819896548460933E-15   7   6   1   1
 -0.1205625727822519E-01   7   6   2   1
 -0.2242442512585311E-14   7   6   2   2
  0.5043403574541555E-15   7   6   3   1
 -0.2060430247712318E-01   7   6   3   2
  0.1185318188306464E-14   7   6   3   3
  0.7874302777486195E-17   7   6   4   1
  0.1156789723584945E-15   7   6   4   2
  0.8052356621545301E-16   7   6   4   3
 -0.4235945434340682E-15   7   6   4   4
  0.1120184132084867E-15   7   6   5   1
 -0.3320422932241968E-01   7   6   5   2
  0.1601014243055032E-14   7   6   5   3
  0.1679568155266783E-15   7   6   5   4
  0.8456669520195843E-15   7   6   5   5
 -0.4743940061763969E-02   7   6   6   1
 -0.1455216155910044E-14   7   6   6   2
 -0.2638896991731467E-01   7   6   6   3
  0.1645019466911501E-15   7   6   6   4
 -0.5937596322239934E-01   7   6   6   5
 -0.1834394181041640E-14   7   6   6   6
 -0.6674619624363887E-16   7   6   7   1
  0.3041335675527602E-01   7   6   7   2
 -0.1314595134138674E-14   7   6   7   3
 -0.1681337336545631E-15   7   6   7   4
 -0.7344385516416807E-15   7   6   7   5
  0.5256014977432531E-01   7   6   7   6
  0.2632387134622112E+00   7   7   1   1
  0.3863554441652095E-15   7   7   2   1
  0.2881422261707858E+00   7   7   2   2
  0.2596402326061729E-01   7   7   3   1
 -0.1121932408088000E-14   7   7   3   2
  0.2763224531318237E+00   7   7   3   3
 -0.1248454041778389E-15   7   7   4   1
 -0.1076557501595444E-15   7   7   4   2
 -0.1169943941164072E-15   7   7   4   3
  0.2554995034004993E+00   7   7   4   4
  0.7133379664380005E-03   7   7   5   1
 -0.2055647319032516E-15   7   7   5   2
  0.3460163259875799E-01   7   7   5   3
 -0.2124311248171853E-15   7   7   5   4
  0.3286393447165972E+00   7   7   5   5
 -0.1044086692103541E-15   7   7   6   1
  0.4000513749371312E-01   7   7   6   2
 -0.2273788796136600E-14   7   7   6   3
 -0.2195112701177013E-15   7   7   6   4
 -0.2256875242245826E-14   7   7   6   5
  0.3272810660017173E+00   7   7   6   6
 -0.8928233434094825E-02   7   7   7   1
 -0.2498001805406602E-15   7   7   7   2
 -0.3028369345991258E-01   7   7   7   3
  0.1788541627659472E-15   7   7   7   4
 -0.7289002783241638E-01   7   7   7   5
  0.1131039706336878E-14   7   7   7   6
  0.3331347594394800E+00   7   7   7   7
 -0.1544586542387954E-14   8   1   1   1
  0.5740417676164510E-02   8   1   2   1
 -0.1464617422042954E-14   8   1   2   2
 -0.1593741194653433E-15   8   1   3   1
 -0.4623910719399053E-02   8   1   3   2
 -0.7548270714560306E-15   8   1   3   3
 -0.1393915435513522E-15   8   1   4   1
  0.3175776776340646E-16   8   1   4   2
  0.4003767277341732E-16   8   1   4   3
 -0.1440480993495269E-14   8   1   4   4
  0.3343442330720064E-15   8   1   5   1
 -0.4737173063164781E-02   8   1   5   2
  0.7179180210384328E-15   8   1   5   3
  0.3582462248570921E-16   8   1   5   4
 -0.1697708248273576E-15   8   1   5   5
 -0.5332359719085299E-02   8   1   6   1
  0.4747145330909891E-15   8   1   6   2
 -0.2266561692141684E-02   8   1   6   3
  0.1220727672880751E-16   8   1   6   4
 -0.7369905004220047E-02   8   1   6   5
 -0.5528023150240638E-15   8   1   6   6
  0.6410684157999447E-16   8   1   7   1
  0.3936184966756410E-02   8   1   7   2
 -0.2588939262623824E-15   8   1   7   3
 -0.1999425598869494E-16   8   1   7   4
 -0.2661716333451913E-16   8   1   7   5
  0.6734389865927113E-02   8   1   7   6
  0.1168439226046762E-15   8   1   7   7
  0.1737329162268405E-02   8   1   8   1
  0.1169068066436855E-01   8   2   1   1
 -0.1258426685340347E-14   8   2   2   1
 -0.4120732917076892E-02   8   2   2   2
 -0.1250487714149242E-01   8   2   3   1
 -0.3509426907064017E-15   8   2   3   2
 -0.4894012908002940E-03   8   2   3   3
  0.8026777222117398E-16   8   2   4   1
  0.3830373482803263E-16   8   2   4   2
  0.8812226126337248E-16   8   2   4   3
  0.1423035428225609E-01   8   2   4   4
 -0.3996230831037216E-02   8   2   5   1
 -0.1407077579451688E-14   8   2   5   2
 -0.2108710039562033E-01   8   2   5   3
  0.1299963479495756E-15   8   2   5   4
 -0.3308181332219289E-01   8   2   5   5
  0.1322997700975437E-15   8   2   6   1
 -0.2722333441658304E-01   8   2   6   2
  0.9551821139597294E-16   8   2   6   3
  0.1369696016691490E-15   8   2   6   4
 -0.1536748159280954E-14   8   2   6   5
 -0.3002375411527328E-01   8   2   6   6
  0.3111070298093651E-02   8   2   7   1
  0.1332918150853679E-14   8   2   7   2
  0.1522034651254210E-01   8   2   7   3
 -0.8270819203688334E-16   8   2   7   4
  0.2891519186864740E-01   8   2   7   5
  0.1370214705587181E-14   8   2   7   6
 -0.4209254675510047E-01   8   2   7   7
  0.1014135607088629E-15   8   2   8   1
  0.1951205386880542E-01   8   2   8   2
 -0.5773380183998812E-15   8   3   1   1
 -0.1146987670508499E-01   8   3   2   1
 -0.7570214526370269E-15   8   3   2   2
  0.7476145726526950E-15   8   3   3   1
 -0.9105842646811146E-02   8   3   3   2
  0.6558999249740449E-15   8   3   3   3
  0.5294945256019300E-16   8   3   4   1
  0.6920066798808934E-16   8   3   4   2
  0.7489317184319978E-18   8   3   4   3
 -0.6621501778306478E-15   8   3   4   4
  0.2796868910515810E-15   8   3   5   1
 -0.1711838645198541E-01   8   3   5   2
  0.1679293639908486E-14   8   3   5   3
  0.8968854955685891E-16   8   3   5   4
  0.1702313546098718E-14   8   3   5   5
  0.4641438794784199E-03   8   3   6   1
  0.2040468488617719E-15   8   3   6   2
 -0.1488131573527510E-01   8   3   6   3
  0.8065030590188492E-16   8   3   6   4
 -0.2887616719894084E-01   8   3   6   5
  0.3276325772346507E-15   8   3   6   6
 -0.1388320881867688E-15   8   3   7   1
  0.1514998234725123E-01   8   3   7   2
 -0.1151910598157224E-14   8   3   7   3
 -0.8363126089165519E-16   8   3   7   4
 -0.1194357113210032E-14   8   3   7   5
  0.2442034798758045E-01   8   3   7   6
  0.1551674210680994E-14   8   3   7   7
  0.3100035817349483E-02   8   3   8   1
  0.6201636426617085E-16   8   3   8   2
  0.1252997146053989E-01   8   3   8   3
 -0.4140749631520058E-15   8   4   1   1
  0.7177956449747189E-16   8   4   2   1
 -0.2044324193357090E-15   8   4   2   2
  0.1138378818031065E-15   8   4   3   1
  0.6385130253609145E-16   8   4   3   2
 -0.2787273919105621E-15   8   4   3   3
 -0.3298403789796721E-15   8   4   4   1
  0.3003469811308825E-02   8   4   4   2
 -0.9360451415958049E-16   8   4   4   3
 -0.4784235759780249E-15   8   4   4   4
  0.5793174930858410E-16   8   4   5   1
  0.8867870448028248E-16   8   4   5   2
  0.2225570589895354E-15   8   4   5   3
  0.9618241757551832E-16   8   4   5   4
  0.1034209213420052E-15   8   4   5   5
 -0.8754096206152506E-17   8   4   6   1
  0.2710150973197919E-15   8   4   6   2
  0.6882851761738817E-16   8   4   6   3
 -0.1701445409858088E-02   8   4   6   4
  0.1467136667782228E-15   8   4   6   5
  0.7210211947539227E-16   8   4   6   6
 -0.5306509706133668E-17   8   4   7   1
 -0.8540106631535940E-16   8   4   7   2
 -0.9816093421102129E-16   8   4   7   3
  0.2322573605794152E-16   8   4   7   4
 -0.1378833213829200E-15   8   4   7   5
 -0.1409644602429541E-15   8   4   7   6
  0.2134637233712245E-15   8   4   7   7
 -0.1607480248664027E-16   8   4   8   1
 -0.1144227447736715E-15   8   4   8   2
 -0.6939921008566535E-16   8   4   8   3
  0.4176724017416064E-03   8   4   8   4
  0.1062336838070914E-14   8   5   1   1
 -0.1120529376792911E-01   8   5   2   1
 -0.7101312943784410E-15   8   5   2   2
  0.6036583586515112E-15   8   5   3   1
 -0.1748065679148555E-01   8   5   3   2
  0.2213583060648652E-14   8   5   3   3
  0.1123067930835800E-16   8   5   4   1
  0.1008307606923978E-15   8   5   4   2
  0.7272873059849517E-16   8   5   4   3
  0.8680684417609884E-15   8   5   4   4
 -0.1458218040675113E-15   8   5   5   1
 -0.2554897417370524E-01   8   5   5   2
  0.9407486725385161E-15   8   5   5   3
  0.1311094736255956E-15   8   5   5   4
  0.1301259157515142E-14   8   5   5   5
 -0.3109475683254364E-02   8   5   6   1
 -0.1492797313713823E-14   8   5   6   2
 -0.2092058341540284E-01   8   5   6   3
  0.1248846826344911E-15   8   5   6   4
 -0.4543372814678029E-01   8   5   6   5
 -0.6874964070322603E-15   8   5   6   6
 -0.1303346536599137E-15   8   5   7   1
  0.2831242646668018E-01   8   5   7   2
 -0.1336441807914257E-14   8   5   7   3
 -0.1481372601445729E-15   8   5   7   4
 -0.1116511397225572E-14   8   5   7   5
  0.4845056218373378E-01   8   5   7   6
  0.1628275489963801E-14   8   5   7   7
  0.6230109852322934E-02   8   5   8   1
  0.1110331444842405E-14   8   5   8   2
  0.2292241962205387E-01   8   5   8   3
 -0.1348263651066539E-15   8   5   8   4
  0.4688865766544948E-01   8   5   8   5
 -0.5463050699267065E-01   8   6   1   1
 -0.2723109281468905E-15   8   6   2   1
 -0.6369529870803714E-01   8   6   2   2
 -0.6824685434780219E-02   8   6   3   1
 -0.5290906601729262E-16   8   6   3   2
 -0.5729034813212572E-01   8   6   3   3
  0.2843448997259185E-16   8   6   4   1
  0.6699068731272719E-16   8   6   4   2
  0.3444552909219899E-16   8   6   4   3
 -0.5023206146380543E-01   8   6   4   4
  0.1756544423570905E-03   8   6   5   1
 -0.8302820236893993E-15   8   6   5   2
 -0.9966414712052127E-02   8   6   5   3
  0.5286061344327752E-16   8   6   5   4
 -0.6792045496890446E-01   8   6   5   5
 -0.1388862982953931E-15   8   6   6   1
 -0.1065155130402793E-01   8   6   6   2
 -0.2309350627394124E-16   8   6   6   3
  0.7266977307834225E-16   8   6   6   4
 -0.8001412032943023E-15   8   6   6   5
 -0.6955170312137390E-01   8   6   6   6
  0.6813272786138117E-02   8   6   7   1
  0.1105886215935215E-14   8   6   7   2
  0.2104493785237456E-01   8   6   7   3
 -0.1323410362275438E-15   8   6   7   4
  0.5118745734206494E-01   8   6   7   5
  0.9228728892196614E-15   8   6   7   6
 -0.7028056143717056E-01   8   6   7   7
  0.3551846317062513E-15   8   6   8   1
  0.2722246820313991E-01   8   6   8   2
 -0.5917575457425883E-15   8   6   8   3
 -0.1177945123570135E-15   8   6   8   4
  0.5646524914304507E-15   8   6   8   5
  0.5129129021845181E-01   8   6   8   6
  0.2232231661755325E-15   8   7   1   1
  0.3644199503995999E-01   8   7   2   1
  0.3624214766008726E-14   8   7   2   2
 -0.1497191720644178E-14   8   7   3   1
  0.4065327702379364E-01   8   7   3   2
 -0.3104547162937359E-14   8   7   3   3
  0.3684863568780734E-16   8   7   4   1
 -0.2442005176233830E-15   8   7   4   2
 -0.1567603310055354E-15   8   7   4   3
  0.1738007823021729E-15   8   7   4   4
 -0.5933296388926923E-16   8   7   5   1
  0.7394831806212301E-01   8   7   5   2
 -0.3583532125553401E-14   8   7   5   3
 -0.3435268132211113E-15   8   7   5   4
 -0.2970471607179868E-14   8   7   5   5
  0.3902347695648731E-02   8   7   6   1
  0.3431662506242494E-14   8   7   6   2
  0.6020548866850628E-01   8   7   6   3
 -0.3850233324850273E-15   8   7   6   4
  0.1374844579811522E+00   8   7   6   5
  0.3418515132923933E-14   8   7   6   6
  0.1317305639569888E-16   8   7   7   1
 -0.4258998816488929E-01   8   7   7   2
  0.1831434309762514E-14   8   7   7   3
  0.2798921100981148E-15   8   7   7   4
  0.6622306869541461E-15   8   7   7   5
 -0.6685690916936032E-01   8   7   7   6
 -0.2803173520301505E-14   8   7   7   7
 -0.8825556499556544E-02   8   7   8   1
 -0.1943757654832012E-14   8   7   8   2
 -0.3378976402510791E-01   8   7   8   3
  0.1719628780188089E-15   8   7   8   4
 -0.5278791850755743E-01   8   7   8   5
 -0.1238592561847440E-14   8   7   8   6
  0.1578674525593644E+00   8   7   8   7
  0.2495328674431420E+00   8   8   1   1
  0.1465814232146090E-14   8   8   2   1
  0.2769144287555270E+00   8   8   2   2
  0.2461062639253558E-01   8   8   3   1
  0.1023486850826316E-15   8   8   3   2
  0.2621118731357729E+00   8   8   3   3
 -0.1228524720879593E-15   8   8   4   1
 -0.1152260511041593E-15   8   8   4   2
 -0.1167276914435432E-15   8   8   4   3
  0.2418920185930855E+00   8   8   4   4
  0.1731784024287145E-02   8   8   5   1
  0.2421673972463623E-14   8   8   5   2
  0.3637226911643759E-01   8   8   5   3
 -0.2252417588126978E-15   8   8   5   4
  0.3200130056525956E+00   8   8   5   5
  0.1454999315475547E-15   8   8   6   1
  0.4182011571308525E-01   8   8   6   2
 -0.3161533534967731E-15   8   8   6   3
 -0.2253972386509081E-15   8   8   6   4
  0.2340141969092713E-14   8   8   6   5
  0.3195277648235354E+00   8   8   6   6
 -0.9049415282704166E-02   8   8   7   1
 -0.1564720575331080E-14   8   8   7   2
 -0.3056926233409059E-01   8   8   7   3
  0.1766612813724719E-15   8   8   7   4
 -0.6974593751129321E-01   8   8   7   5
 -0.1141448047192739E-14   8   8   7   6
  0.3244432259918014E+00   8   8   7   7
 -0.1823628054120618E-15   8   8   8   1
 -0.4027535162238073E-01   8   8   8   2
  0.1402523930327249E-14   8   8   8   3
  0.2092786408321870E-15   8   8   8   4
 -0.6834810495348620E-15   8   8   8   5
 -0.6511653342056317E-01   8   8   8   6
  0.6696032617270475E-15   8   8   8   7
  0.3204598150380840E+00   8   8   8   8
  0.5211894246074115E-15   9   1   1   1
 -0.2036934437994260E-15   9   1   2   1
  0.3122260755358253E-15   9   1   2   2
  0.1755705390845178E-15   9   1   3   1
  0.5746559118407878E-16   9   1   3   2
  0.3168549979154871E-15   9   1   3   3
 -0.3884993625996346E-01   9   1   4   1
  0.2705529642044234E-15   9   1   4   2
  0.6239075464496712E-02   9   1   4   3
  0.4074610721873299E-15   9   1   4   4
 -0.3502016595156778E-15   9   1   5   1
  0.8086902783307566E-16   9   1   5   2
 -0.2196515642976398E-15   9   1   5   3
  0.8623906062464545E-02   9   1   5   4
  0.1462385939721548E-15   9   1   5   5
  0.7862660839639358E-16   9   1   6   1
 -0.2456914538228945E-15   9   1   6   2
  0.2145961428205138E-16   9   1   6   3
  0.5838714572454140E-16   9   1   6   4
  0.6090253261205676E-16   9   1   6   5
  0.7768762021175085E-16   9   1   6   6
  0.2575901919494449E-16   9   1   7   1
 -0.9280450697562457E-17   9   1   7   2
  0.3373855724357548E-16   9   1   7   3
  0.3231203742978851E-02   9   1   7   4
  0.8717000628498001E-17   9   1   7   5
 -0.3160785950828022E-16   9   1   7   6
 -0.6371208848374066E-16   9   1   7   7
  0.1937330842575271E-16   9   1   8   1
  0.4773901938004272E-16   9   1   8   2
 -0.2799321776080357E-16   9   1   8   3
  0.2455391812994975E-15   9   1   8   4
 -0.2625558373920704E-16   9   1   8   5
  0.9310329002237929E-17   9   1   8   6
  0.7300774040204688E-16   9   1   8   7
 -0.5910875429244015E-16   9   1   8   8
  0.3327161299486094E-01   9   1   9   1
 -0.7305508287417772E-15   9   2   1   1
  0.5283210087240629E-17   9   2   2   1
 -0.4947907600021317E-15   9   2   2   2
  0.1232384602115960E-15   9   2   3   1
 -0.3404158165640833E-17   9   2   3   2
 -0.5282673459090192E-15   9   2   3   3
  0.5116713746730823E-15   9   2   4   1
 -0.4641432880370428E-02   9   2   4   2
 -0.1217831149035527E-15   9   2   4   3
 -0.7421047868284355E-15   9   2   4   4
  0.1255157998512653E-15   9   2   5   1
 -0.6883515339664628E-16   9   2   5   2