 &FCI NORB= 36,NELEC= 12,MS2= 2,
  ORBSYM=1,1,1,1,1,1,1,1,1,1,1,1,1,1,1,1,2,2,2,2,2,2,2,3,3,3,3,3,3,3,
 3,3,3,4,4,4,
  ISYM=1,
  OCC=  3,  2,  2,  0,  0,  0,  0,  0,
  CLOSED=  3,  0,  2,  0,  0,  0,  0,  0,
  FOCK=    -20.612673880704,    -11.283569966224,     -1.437597066903,     -0.852804390924,     -0.667540725016,
       0.202046211373,      0.339880062229,      0.667168842037,      0.881043975252,      0.979110211210,      1.070329379229,      1.672084781510,      1.827123930512,      1.941527895506,      2.594542222412,      2.698172006927,      3.106194092185,      3.762215742830,     -0.751913909299,     -0.332123832238,      0.614686403922,      1.155311517825,      1.375567088892,      1.952095239208,      3.313692949604,     -0.692966241974,     -0.454834811585,      0.270575835349,      0.734671869293,      0.833358497213,      1.284623800520,      1.715347047473,      1.960341630886,      2.697687640595,      3.676069197034,      1.146366244564,
 /
  0.7920221030181793E+00   1   1   1   1
 -0.2475558286564915E-01   2   1   1   1
  0.5998544975029329E-01   2   1   2   1
  0.4706554576909231E+00   2   2   1   1
  0.6691394259219770E-02   2   2   2   1
  0.4812525771148366E+00   2   2   2   2
 -0.1043878478189440E+00   3   1   1   1
 -0.5008309268329189E-01   3   1   2   1
 -0.8398110073687902E-02   3   1   2   2
  0.9318013459364584E-01   3   1   3   1
 -0.1457022524636886E+00   3   2   1   1
  0.7495322736756688E-01   3   2   2   1
  0.2405232852475814E-02   3   2   2   2
 -0.2494606794415027E-01   3   2   3   1
  0.1676839034987391E+00   3   2   3   2
  0.5876608393177998E+00   3   3   1   1
 -0.3186221443583646E-01   3   3   2   1
  0.4789989119945608E+00   3   3   2   2
 -0.1882753678072469E-01   3   3   3   1
 -0.9369214778171131E-01   3   3   3   2
  0.5495891915615241E+00   3   3   3   3
  0.4524623164144870E-02   4   1   1   1
 -0.2858148792221627E-02   4   1   2   1
 -0.1158599699145005E-01   4   1   2   2
 -0.4065861248300583E-02   4   1   3   1
 -0.4190308332165145E-02   4   1   3   2
 -0.5622164780069406E-02   4   1   3   3
  0.2385563430957694E-02   4   1   4   1
 -0.2891466852211433E-01   4   2   1   1
 -0.1943190820397432E-01   4   2   2   1
 -0.5031786723647864E-01   4   2   2   2
  0.1288413405676658E-01   4   2   3   1
 -0.2961341385893211E-01   4   2   3   2
 -0.3238095128883520E-01   4   2   3   3
  0.4980357793749370E-02   4   2   4   1
  0.2736384524758007E-01   4   2   4   2
 -0.4820134145446832E-01   4   3   1   1
  0.6800204268333095E-03   4   3   2   1
 -0.4797377184181762E-01   4   3   2   2
  0.1871895983123852E-02   4   3   3   1
  0.1992313263313112E-02   4   3   3   2
 -0.5124847186870688E-01   4   3   3   3
  0.2875367186680765E-02   4   3   4   1
  0.1727796385094120E-01   4   3   4   2
  0.1666394268203656E-01   4   3   4   3
  0.2414626649821867E+00   4   4   1   1
  0.2650392693998175E-01   4   4   2   1
  0.2869778861415023E+00   4   4   2   2
 -0.1369234144412150E-01   4   4   3   1
  0.5363368753820543E-01   4   4   3   2
  0.2584842828189185E+00   4   4   3   3
 -0.3171686921712283E-02   4   4   4   1
 -0.1353627395829748E-01   4   4   4   2
 -0.4522031693628831E-02   4   4   4   3
  0.2776950845203974E+00   4   4   4   4
 -0.9824846282626548E-01   5   1   1   1
  0.1707075968972674E-01   5   1   2   1
 -0.2181333514792303E-01   5   1   2   2
  0.1772198555736313E-01   5   1   3   1
  0.3416805005600906E-01   5   1   3   2
 -0.5584739269284513E-01   5   1   3   3
 -0.4420389285210435E-02   5   1   4   1
 -0.3588154299440417E-02   5   1   4   2
  0.5752593314437743E-02   5   1   4   3
  0.1623290041520134E-02   5   1   4   4
  0.3277189417063366E-01   5   1   5   1
  0.4371195854779045E-01   5   2   1   1
 -0.4647151320538428E-03   5   2   2   1
  0.1363218777005915E-01   5   2   2   2
 -0.6185405781009388E-02   5   2   3   1
 -0.2053570728864178E-01   5   2   3   2
  0.1814377350186376E-01   5   2   3   3
 -0.7682667671434253E-03   5   2   4   1
 -0.2144098630300552E-02   5   2   4   2
 -0.1825555420332279E-02   5   2   4   3
 -0.2420762500802005E-02   5   2   4   4
 -0.1100723149068714E-02   5   2   5   1
  0.1762207645260861E-01   5   2   5   2
  0.4542061238618499E-01   5   3   1   1
 -0.7150758522317705E-02   5   3   2   1
 -0.1037573885568498E-01   5   3   2   2
 -0.1330255478400885E-01   5   3   3   1
 -0.3237429646847856E-01   5   3   3   2
  0.1190786268446353E-01   5   3   3   3
  0.3031603173556000E-02   5   3   4   1
  0.4648794447883541E-02   5   3   4   2
 -0.2948925532068741E-03   5   3   4   3
 -0.1648031494281196E-01   5   3   4   4
 -0.1034269073081156E-01   5   3   5   1
  0.9573088540346185E-02   5   3   5   2
  0.1847722631535043E-01   5   3   5   3
  0.1404034119832615E-02   5   4   1   1
 -0.4936032985814787E-02   5   4   2   1
 -0.4555605004963887E-02   5   4   2   2
  0.4331678036686658E-02   5   4   3   1
 -0.8751122096437629E-02   5   4   3   2
 -0.1392448439425989E-02   5   4   3   3
  0.1055717743672811E-02   5   4   4   1
  0.3007589821113453E-03   5   4   4   2
 -0.1534374167349339E-02   5   4   4   3
 -0.8847606580711764E-02   5   4   4   4
  0.2366068840742875E-02   5   4   5   1
  0.5474871576905426E-02   5   4   5   2
  0.6191111557336191E-02   5   4   5   3
  0.1304877418741499E-01   5   4   5   4
  0.3703919455938056E+00   5   5   1   1
  0.1063848579685732E-01   5   5   2   1
  0.3344128188216130E+00   5   5   2   2
 -0.2575447273251278E-01   5   5   3   1
  0.2225169473056310E-02   5   5   3   2
  0.3374984026520522E+00   5   5   3   3
 -0.1341054949794696E-02   5   5   4   1
 -0.1916198751616477E-01   5   5   4   2
 -0.1699949261748077E-01   5   5   4   3
  0.2477025455882136E+00   5   5   4   4
 -0.1303431857736465E-01   5   5   5   1
  0.7866871486170490E-02   5   5   5   2
 -0.1237429267750070E-02   5   5   5   3
 -0.1069729192720303E-02   5   5   5   4
  0.3056308120771102E+00   5   5   5   5
 -0.2400911311328533E-01   6   1   1   1
  0.5084919940491725E-02   6   1   2   1
 -0.4067438759348544E-02   6   1   2   2
  0.4214383023305589E-02   6   1   3   1
  0.6964867431990278E-02   6   1   3   2
 -0.1229434010234103E-01   6   1   3   3
 -0.2405235418682340E-02   6   1   4   1
 -0.3765732153948962E-02   6   1   4   2
 -0.2835669216125249E-03   6   1   4   3
  0.4705226288568968E-04   6   1   4   4
  0.9622501228130662E-02   6   1   5   1
 -0.8443943868845748E-04   6   1   5   2
 -0.3874916619346328E-02   6   1   5   3
 -0.7421906941982408E-03   6   1   5   4
 -0.2449975495796240E-02   6   1   5   5
  0.5662010481827950E-02   6   1   6   1
  0.6081918821850849E-02   6   2   1   1
  0.1491983618463751E-02   6   2   2   1
 -0.7138287293163308E-02   6   2   2   2
 -0.5837509577138746E-02   6   2   3   1
 -0.5665954120519652E-02   6   2   3   2
 -0.3848303665467501E-02   6   2   3   3
 -0.2228601656743880E-02   6   2   4   1
 -0.1143868512001445E-01   6   2   4   2
 -0.7647256504559791E-02   6   2   4   3
 -0.5929208805214266E-02   6   2   4   4
  0.1089068035263277E-03   6   2   5   1
  0.2207372186075300E-03   6   2   5   2
 -0.1566863186837534E-02   6   2   5   3
 -0.2717606212381429E-02   6   2   5   4
  0.3503687639520839E-02   6   2   5   5
  0.7699196407023799E-02   6   2   6   1
  0.3490982301992250E-01   6   2   6   2
  0.1125428109087365E-01   6   3   1   1
 -0.7009525307198138E-02   6   3   2   1
 -0.7684805248735315E-02   6   3   2   2
 -0.1009059446654607E-02   6   3   3   1
 -0.1549773101974675E-01   6   3   3   2
  0.4303885697305517E-02   6   3   3   3
 -0.1671052138052557E-03   6   3   4   1
 -0.4580368342154011E-02   6   3   4   2
 -0.6221745648793629E-02   6   3   4   3
 -0.8782329881722438E-02   6   3   4   4
 -0.5481263823825095E-02   6   3   5   1
 -0.1905596963950295E-02   6   3   5   2
  0.1710294974783591E-02   6   3   5   3
 -0.1190588959950774E-02   6   3   5   4
  0.6410290783751536E-03   6   3   5   5
  0.2455522271136763E-02   6   3   6   1
  0.2330277849143732E-01   6   3   6   2
  0.1930964505547822E-01   6   3   6   3
 -0.3660181911925302E-01   6   4   1   1
 -0.7778047890422012E-02   6   4   2   1
 -0.4466244774455895E-01   6   4   2   2
  0.5498358010108528E-02   6   4   3   1
 -0.1122947730713400E-01   6   4   3   2
 -0.3762264660847979E-01   6   4   3   3
  0.1865342697763058E-02   6   4   4   1
  0.9240086181280950E-02   6   4   4   2
  0.6353210064487660E-02   6   4   4   3
 -0.1704750427271163E-01   6   4   4   4
 -0.6260329841089457E-05   6   4   5   1
 -0.3892366055514004E-02   6   4   5   2
  0.3185195614177107E-03   6   4   5   3
 -0.2512129734803109E-02   6   4   5   4
 -0.2107964349022302E-01   6   4   5   5
 -0.2439794102210673E-03   6   4   6   1
  0.4120250448750328E-02   6   4   6   2
  0.5767811912652110E-02   6   4   6   3
  0.1569498784267614E-01   6   4   6   4
  0.4374279158031067E-01   6   5   1   1
 -0.2799728361536938E-02   6   5   2   1
  0.1097861642976426E-01   6   5   2   2
 -0.7643621925593117E-02   6   5   3   1
 -0.2003678429478951E-01   6   5   3   2
  0.2116766660521785E-01   6   5   3   3
 -0.1322459933604872E-04   6   5   4   1
 -0.2162430900032871E-02   6   5   4   2
 -0.3092586473393822E-02   6   5   4   3
 -0.6985448829914037E-02   6   5   4   4
 -0.3723623640672788E-02   6   5   5   1
  0.1179114787945998E-01   6   5   5   2
  0.1101061339210758E-01   6   5   5   3
  0.5981444171957180E-02   6   5   5   4
  0.5758012862789895E-02   6   5   5   5
  0.4335982276981319E-03   6   5   6   1
 -0.6471283463241445E-03   6   5   6   2
 -0.2974477267474963E-02   6   5   6   3
 -0.6834251214578004E-02   6   5   6   4
  0.1950993145900295E-01   6   5   6   5
  0.3115932351740318E+00   6   6   1   1
  0.4696020565507245E-01   6   6   2   1
  0.3918404442353187E+00   6   6   2   2
 -0.2328700180128709E-01   6   6   3   1
  0.9302859732762299E-01   6   6   3   2
  0.3389830921062177E+00   6   6   3   3
 -0.7079955357776113E-02   6   6   4   1
 -0.3028975841405329E-01   6   6   4   2
 -0.1484613462008127E-01   6   6   4   3
  0.3014057587536103E+00   6   6   4   4
  0.2405149661521444E-02   6   6   5   1
 -0.2173429421612638E-02   6   6   5   2
 -0.2587845272342566E-01   6   6   5   3
 -0.1470019986037902E-01   6   6   5   4
  0.3086925949837050E+00   6   6   5   5
 -0.1237719423431649E-02   6   6   6   1
 -0.2591599765059559E-01   6   6   6   2
 -0.2899538511145154E-01   6   6   6   3
 -0.4341707363939162E-01   6   6   6   4
 -0.3076440479763715E-02   6   6   6   5
  0.4421022722350688E+00   6   6   6   6
 -0.4856476411159726E-01   7   1   1   1
  0.2687595464337483E-01   7   1   2   1
  0.1934750702446098E-01   7   1   2   2
  0.2211625891506987E-02   7   1   3   1
  0.2135842050428325E-01   7   1   3   2
 -0.3368791758707160E-02   7   1   3   3
 -0.8546120540678846E-02   7   1   4   1
 -0.1135356090826845E-01   7   1   4   2
 -0.1627754156536172E-02   7   1   4   3
  0.1255497374480227E-01   7   1   4   4
  0.2883493164617128E-01   7   1   5   1
  0.2194786713469274E-02   7   1   5   2
 -0.1221344764380810E-01   7   1   5   3
 -0.2702164783375836E-02   7   1   5   4
 -0.5120433453711105E-02   7   1   5   5
  0.1068840577543768E-01   7   1   6   1
  0.1197950637977618E-02   7   1   6   2
 -0.5650300033827997E-02   7   1   6   3
 -0.4504256485657811E-02   7   1   6   4
 -0.3479518423014034E-02   7   1   6   5
  0.2137112920562207E-01   7   1   6   6
  0.5715233130413473E-01   7   1   7   1
  0.1649629632367602E-01   7   2   1   1
  0.2481142232316971E-01   7   2   2   1
 -0.1979099367258833E-01   7   2   2   2
 -0.3282227133803998E-01   7   2   3   1
  0.8739174318108289E-02   7   2   3   2
 -0.3028244128663158E-01   7   2   3   3
  0.1023841133022150E-02   7   2   4   1
  0.4549868221609622E-02   7   2   4   2
  0.1349702011500869E-01   7   2   4   3
  0.1146436411493762E-02   7   2   4   4
  0.5084891636633749E-02   7   2   5   1
  0.1250911846492818E-01   7   2   5   2
  0.5568372040973935E-02   7   2   5   3
 -0.2885851250684815E-02   7   2   5   4
  0.4221553248648396E-02   7   2   5   5
  0.3468877747344135E-03   7   2   6   1
 -0.4338416728674832E-02   7   2   6   2
 -0.9049134146243101E-02   7   2   6   3
 -0.5375581532895222E-03   7   2   6   4
  0.4918856545199704E-02   7   2   6   5
  0.1030653437982948E-01   7   2   6   6
  0.9256985317670292E-02   7   2   7   1
  0.4249944115180104E-01   7   2   7   2
  0.3000210582744746E-01   7   3   1   1
 -0.5454163762751334E-01   7   3   2   1
 -0.2640796502441920E-01   7   3   2   2
  0.3566153785621769E-01   7   3   3   1
 -0.8657465734553771E-01   7   3   3   2
  0.2153854829689063E-01   7   3   3   3
  0.5682182307020282E-02   7   3   4   1
  0.3329601213977132E-01   7   3   4   2
  0.9561257058272717E-02   7   3   4   3
 -0.3118797747614675E-01   7   3   4   4
 -0.2178751432452873E-01   7   3   5   1
  0.4177484086839631E-02   7   3   5   2
  0.1814847889209278E-01   7   3   5   3
  0.2017435398168954E-02   7   3   5   4
 -0.1141780583302930E-01   7   3   5   5
 -0.8555012171610357E-02   7   3   6   1
 -0.1096281633581421E-01   7   3   6   2
  0.2681153755898193E-02   7   3   6   3
  0.9307003273268263E-02   7   3   6   4
  0.5645630414324310E-02   7   3   6   5
 -0.4431719679778565E-01   7   3   6   6
 -0.3486858149851012E-01   7   3   7   1
 -0.1165805448284291E-01   7   3   7   2
  0.8466852591078591E-01   7   3   7   3
 -0.2719697970407913E-01   7   4   1   1
  0.1232232803184048E-01   7   4   2   1
  0.2098167132410289E-01   7   4   2   2
  0.1169007569872408E-02   7   4   3   1
  0.4159230234444407E-01   7   4   3   2
  0.1098206237274772E-02   7   4   3   3
 -0.1993924654836556E-02   7   4   4   1
 -0.1124597038755071E-01   7   4   4   2
 -0.5766855485604246E-02   7   4   4   3
  0.2111428754462470E-01   7   4   4   4
  0.4698567682947991E-02   7   4   5   1
 -0.1084685166565561E-01   7   4   5   2
 -0.1326586313355595E-01   7   4   5   3
 -0.5828590858266994E-02   7   4   5   4
  0.4903020982742472E-02   7   4   5   5
  0.1458820947353627E-02   7   4   6   1
  0.8046160600540201E-03   7   4   6   2
 -0.6288170875811759E-03   7   4   6   3
 -0.3929734427988121E-02   7   4   6   4
 -0.9831370852117965E-02   7   4   6   5
  0.3207135421368511E-01   7   4   6   6
  0.5959550309423972E-02   7   4   7   1
 -0.1208554705148526E-01   7   4   7   2
 -0.2496862160817317E-01   7   4   7   3
  0.1998472495949982E-01   7   4   7   4
  0.8856730846110730E-01   7   5   1   1
  0.6121537948391481E-02   7   5   2   1
  0.5653394185426246E-01   7   5   2   2
 -0.2108760378518466E-01   7   5   3   1
 -0.5353695021824945E-02   7   5   3   2
  0.6481703636980279E-01   7   5   3   3
 -0.1663290024353427E-02   7   5   4   1
 -0.1413963911710928E-01   7   5   4   2
 -0.1301595234135808E-01   7   5   4   3
  0.1251869764207487E-01   7   5   4   4
 -0.1458732611768120E-01   7   5   5   1
  0.5943459392407709E-02   7   5   5   2
  0.4338079356325788E-02   7   5   5   3
 -0.1887812406312375E-02   7   5   5   4
  0.2265042943069957E-01   7   5   5   5
 -0.3197532644657591E-02   7   5   6   1
  0.1765924442840265E-02   7   5   6   2
  0.1278844349568859E-02   7   5   6   3
 -0.9892581868885371E-02   7   5   6   4
  0.6103161415392394E-02   7   5   6   5
  0.2853343820388230E-01   7   5   6   6
 -0.9506717715687986E-03   7   5   7   1
  0.6440791649988571E-03   7   5   7   2
 -0.8051461004033499E-02   7   5   7   3
  0.1867232118351263E-02   7   5   7   4
  0.2406876103697944E-01   7   5   7   5
  0.2846278644919258E-01   7   6   1   1
 -0.4785457728816928E-02   7   6   2   1
 -0.2524828420806094E-02   7   6   2   2
 -0.6419596888528688E-02   7   6   3   1
 -0.2089841510580902E-01   7   6   3   2
  0.1086410959167029E-01   7   6   3   3
  0.1789332605240182E-04   7   6   4   1
  0.4238377265837548E-03   7   6   4   2
 -0.1201233271215019E-02   7   6   4   3
 -0.8045138884330821E-02   7   6   4   4
 -0.6577065259434238E-02   7   6   5   1
  0.2503358847392625E-02   7   6   5   2
  0.3970210397455569E-02   7   6   5   3
 -0.3571346723456003E-02   7   6   5   4
  0.2927171750845119E-02   7   6   5   5
  0.1264075471052006E-02   7   6   6   1
  0.1096036722714617E-01   7   6   6   2
  0.7748436541423179E-02   7   6   6   3
  0.4531573198585846E-02   7   6   6   4
  0.2504370062852812E-02   7   6   6   5
 -0.1489467167941860E-01   7   6   6   6
 -0.2662397767900205E-02   7   6   7   1
  0.3157846449478106E-02   7   6   7   2
  0.7191354014094695E-02   7   6   7   3
 -0.6251649961066943E-02   7   6   7   4
  0.2708585667390954E-02   7   6   7   5
  0.1029766287281191E-01   7   6   7   6
  0.5594242751638087E+00   7   7   1   1
  0.3179283577939297E-01   7   7   2   1
  0.4811351354174555E+00   7   7   2   2
 -0.6931208048430267E-01   7   7   3   1
 -0.9963156445267704E-02   7   7   3   2
  0.5011490969140061E+00   7   7   3   3
 -0.1017233511779478E-01   7   7   4   1
 -0.6329854072969657E-01   7   7   4   2
 -0.5496896476556423E-01   7   7   4   3
  0.2839457994693503E+00   7   7   4   4
 -0.3136988571662236E-01   7   7   5   1
  0.2371947704493393E-01   7   7   5   2
  0.1992038104345825E-02   7   7   5   3
 -0.2878810604820981E-02   7   7   5   4
  0.3482190182527875E+00   7   7   5   5
 -0.3400219012306728E-02   7   7   6   1
  0.1016386210643608E-01   7   7   6   2
  0.2438512814984056E-02   7   7   6   3
 -0.4464775118017872E-01   7   7   6   4
  0.1970864909012736E-01   7   7   6   5
  0.3681892445248419E+00   7   7   6   6
  0.2929586401855977E-01   7   7   7   1
 -0.3267875432023948E-03   7   7   7   2
 -0.6136371313547705E-01   7   7   7   3
  0.1691047068358512E-01   7   7   7   4
  0.7396194030489112E-01   7   7   7   5
  0.7465559552315856E-02   7   7   7   6
  0.5626248265102297E+00   7   7   7   7
 -0.3228825566794911E-02   8   1   1   1
 -0.4108115979497826E-02   8   1   2   1
 -0.2187188412760981E-01   8   1   2   2
 -0.4724391425058754E-02   8   1   3   1
 -0.1015125042079004E-02   8   1   3   2
 -0.1527041863955844E-01   8   1   3   3
  0.3775560340521353E-02   8   1   4   1
  0.7027748500722498E-02   8   1   4   2
  0.4202627814460918E-02   8   1   4   3
 -0.6681811615398592E-02   8   1   4   4
 -0.5753918714348929E-02   8   1   5   1
 -0.3695837257123673E-02   8   1   5   2
  0.4492508034377061E-02   8   1   5   3
  0.9176605587374875E-03   8   1   5   4
 -0.2180900583826440E-02   8   1   5   5
 -0.2833386946727131E-02   8   1   6   1
 -0.1494013164229956E-02   8   1   6   2
  0.1151631397556530E-02   8   1   6   3
  0.2757345416107143E-02   8   1   6   4
  0.3420036145019081E-04   8   1   6   5
 -0.9818747320138212E-02   8   1   6   6
 -0.1654209356456370E-01   8   1   7   1
 -0.1130563121577419E-02   8   1   7   2
  0.9692620130772732E-02   8   1   7   3
 -0.1579028275068329E-02   8   1   7   4
 -0.3411980292148483E-02   8   1   7   5
 -0.3286542185147333E-04   8   1   7   6
 -0.2305338049924964E-01   8   1   7   7
  0.8151568204405010E-02   8   1   8   1
 -0.2000513372573669E-01   8   2   1   1
 -0.2679879913544139E-01   8   2   2   1
 -0.3403254244663175E-01   8   2   2   2
  0.2075761842411516E-01   8   2   3   1
 -0.2875283364461664E-01   8   2   3   2
 -0.1370776648679355E-01   8   2   3   3
  0.5268994141928536E-02   8   2   4   1
  0.2802562004561393E-01   8   2   4   2
  0.1492616306257763E-01   8   2   4   3
 -0.1172665165715580E-01   8   2   4   4
 -0.8774265170253492E-02   8   2   5   1
 -0.8199296272849101E-02   8   2   5   2
 -0.2235632535822799E-02   8   2   5   3
 -0.1400035210585779E-02   8   2   5   4
 -0.6211414393853240E-02   8   2   5   5
 -0.3992872962705694E-02   8   2   6   1
 -0.7452174153021154E-02   8   2   6   2
 -0.9013874976087030E-03   8   2   6   3
  0.6908289273170578E-02   8   2   6   4
 -0.5125118323803883E-02   8   2   6   5
 -0.9329568033875277E-02   8   2   6   6
 -0.1884015687808782E-01   8   2   7   1
 -0.4335635100132591E-02   8   2   7   2
  0.4000023193478223E-01   8   2   7   3
 -0.7904290987837861E-02   8   2   7   4
 -0.1387415514583411E-01   8   2   7   5
  0.7764137911563558E-03   8   2   7   6
 -0.6084378468400089E-01   8   2   7   7
  0.9149141495944157E-02   8   2   8   1
  0.4461403895744394E-01   8   2   8   2
 -0.6945353396951981E-01   8   3   1   1
  0.1202730815920886E-01   8   3   2   1
 -0.4502406443977797E-01   8   3   2   2
 -0.7802529574371352E-03   8   3   3   1
  0.2592980101713603E-01   8   3   3   2
 -0.6180229937284626E-01   8   3   3   3
  0.1692726839142240E-02   8   3   4   1
  0.1224604900012979E-01   8   3   4   2
  0.1647553765970218E-01   8   3   4   3
 -0.3689210870810166E-02   8   3   4   4
  0.1383634163061306E-01   8   3   5   1
 -0.9635570545727973E-02   8   3   5   2
 -0.6646879800088422E-02   8   3   5   3
 -0.2911143446443250E-02   8   3   5   4
 -0.1013480742956933E-01   8   3   5   5
  0.2826356006078550E-02   8   3   6   1
 -0.4347538594902019E-02   8   3   6   2
 -0.5619461735234562E-02   8   3   6   3
  0.3459818945565989E-02   8   3   6   4
 -0.7319074877842644E-02   8   3   6   5
  0.4166189688561248E-02   8   3   6   6
  0.5503665926423978E-02   8   3   7   1
  0.1478730932797058E-01   8   3   7   2
 -0.4438727161684544E-02   8   3   7   3
 -0.2264266077944138E-03   8   3   7   4
 -0.1373729482556774E-01   8   3   7   5
 -0.3051981822409916E-02   8   3   7   6
 -0.5508445403922543E-01   8   3   7   7
  0.5232650089729188E-02   8   3   8   1
  0.1530118966844298E-01   8   3   8   2
  0.3035883945598117E-01   8   3   8   3
  0.6730077109790507E-01   8   4   1   1
  0.1385872495137172E-01   8   4   2   1
  0.8098198913583217E-01   8   4   2   2
 -0.1067275958096853E-01   8   4   3   1
  0.1873576176167134E-01   8   4   3   2
  0.7003545567130619E-01   8   4   3   3
 -0.4325163824427800E-02   8   4   4   1
 -0.2260022706872156E-01   8   4   4   2
 -0.1661664970382703E-01   8   4   4   3
  0.2332960418534037E-01   8   4   4   4
 -0.1045075973692952E-02   8   4   5   1
  0.4089219362655730E-02   8   4   5   2
 -0.3376614937882702E-02   8   4   5   3
 -0.8911893587464220E-03   8   4   5   4
  0.4043947745064249E-01   8   4   5   5
  0.6294613934287579E-03   8   4   6   1
  0.3361169171772448E-03   8   4   6   2
 -0.2583773068852538E-02   8   4   6   3
 -0.1548693166419295E-01   8   4   6   4
  0.4001539072672967E-02   8   4   6   5
  0.5897302945570758E-01   8   4   6   6
  0.1035488531525109E-01   8   4   7   1
 -0.3469996104409255E-02   8   4   7   2
 -0.2319676378189091E-01   8   4   7   3
  0.1091042604208250E-01   8   4   7   4
  0.1626158263712255E-01   8   4   7   5
 -0.1891199157623355E-02   8   4   7   6
  0.9049637483598470E-01   8   4   7   7
 -0.7407817442554056E-02   8   4   8   1
 -0.2196299563017032E-01   8   4   8   2
 -0.1378524164775070E-01   8   4   8   3
  0.3382311803818960E-01   8   4   8   4
 -0.6771462863339348E-02   8   5   1   1
 -0.1314192828090656E-01   8   5   2   1
 -0.2385885315223607E-01   8   5   2   2
  0.1053719761355052E-01   8   5   3   1
 -0.2673572758871733E-01   8   5   3   2
 -0.1332260986205039E-01   8   5   3   3
  0.1142479208801422E-02   8   5   4   1
  0.5923616546111114E-02   8   5   4   2
  0.1600362631200065E-02   8   5   4   3
 -0.2042733647230314E-01   8   5   4   4
  0.3744702010412019E-02   8   5   5   1
  0.9134188884388290E-02   8   5   5   2
  0.1108727271624189E-01   8   5   5   3
  0.8286312787172428E-02   8   5   5   4
 -0.1154337682195085E-01   8   5   5   5
  0.9421941656022059E-03   8   5   6   1
 -0.3005535690357606E-03   8   5   6   2
  0.3352873743197376E-03   8   5   6   3
  0.2611605112029569E-02   8   5   6   4
  0.1114439865921420E-01   8   5   6   5
 -0.3438135699062526E-01   8   5   6   6
 -0.3741064567859881E-02   8   5   7   1
 -0.1260310734954780E-02   8   5   7   2
  0.1340485962110330E-01   8   5   7   3
 -0.9744565582126526E-02   8   5   7   4
 -0.6223886952929351E-02   8   5   7   5
  0.3752329038211408E-03   8   5   7   6
 -0.2291171041196985E-01   8   5   7   7
  0.2125718288403548E-02   8   5   8   1
  0.5028904449794914E-03   8   5   8   2
 -0.3652934101297592E-02   8   5   8   3
 -0.7472688224450866E-02   8   5   8   4
  0.1951745859686174E-01   8   5   8   5
 -0.7333764276329334E-02   8   6   1   1
 -0.1903607346166260E-02   8   6   2   1
 -0.6077000040043632E-02   8   6   2   2
  0.3125690044181581E-02   8   6   3   1
 -0.1346464215328436E-02   8   6   3   2
 -0.6364807358515990E-02   8   6   3   3
 -0.3833326386843863E-03   8   6   4   1
 -0.2730805725869753E-02   8   6   4   2
 -0.2428185792492131E-02   8   6   4   3
 -0.8873524099220905E-02   8   6   4   4
  0.1886263953404620E-02   8   6   5   1
 -0.2222170202314478E-02   8   6   5   2
 -0.2069940040752781E-02   8   6   5   3
 -0.4764171426466669E-03   8   6   5   4
  0.6853019156690713E-02   8   6   5   5
  0.2775284103371716E-02   8   6   6   1
  0.1526148388327166E-01   8   6   6   2
  0.1223798456447464E-01   8   6   6   3
  0.6412679667659592E-02   8   6   6   4
 -0.4885755342486542E-02   8   6   6   5
 -0.8375314525598957E-02   8   6   6   6
 -0.1651449747842352E-02   8   6   7   1
 -0.2646578303585455E-02   8   6   7   2
  0.3559094831290890E-03   8   6   7   3
 -0.5158668314031995E-03   8   6   7   4
 -0.3485294686584947E-02   8   6   7   5
  0.5072653989841187E-02   8   6   7   6
 -0.7130854240723987E-02   8   6   7   7
  0.1558517175624555E-02   8   6   8   1
  0.4245173369832889E-02   8   6   8   2
  0.3299610477051560E-02   8   6   8   3
 -0.2820162567953349E-02   8   6   8   4
  0.4173645503632046E-03   8   6   8   5
  0.2014713746142895E-01   8   6   8   6
 -0.7237741221869456E-01   8   7   1   1
  0.9001835878357567E-02   8   7   2   1
 -0.8235286777111659E-02   8   7   2   2
  0.1151320722102405E-01   8   7   3   1
  0.4596276801857042E-01   8   7   3   2
 -0.3317679579774250E-01   8   7   3   3
 -0.1124082988022058E-02   8   7   4   1
 -0.7082366098955666E-02   8   7   4   2
 -0.1831539107223466E-02   8   7   4   3
  0.1303550942649927E-01   8   7   4   4
  0.1141524352194809E-01   8   7   5   1
 -0.1182680382661000E-01   8   7   5   2
 -0.1139774788320295E-01   8   7   5   3
 -0.1563962283290185E-02   8   7   5   4
 -0.1301496779168144E-01   8   7   5   5
  0.2513598328337220E-02   8   7   6   1
 -0.7995557168996477E-03   8   7   6   2
 -0.1665420616386051E-02   8   7   6   3
 -0.1088435711893265E-02   8   7   6   4
 -0.9462985131766938E-02   8   7   6   5
  0.1249227416921080E-01   8   7   6   6
  0.4728505116935194E-02   8   7   7   1
 -0.1507138220086897E-01   8   7   7   2
 -0.2275248118694410E-01   8   7   7   3
  0.1921121087013565E-01   8   7   7   4
 -0.6934247390492955E-02   8   7   7   5
 -0.8337158988729967E-02   8   7   7   6
 -0.1879250761869723E-01   8   7   7   7
  0.8721869949980809E-03   8   7   8   1
 -0.8009909962717797E-02   8   7   8   2
  0.3365280612461372E-02   8   7   8   3
  0.4044759580461001E-02   8   7   8   4
 -0.4309799824393334E-02   8   7   8   5
 -0.8810659494016613E-03   8   7   8   6
  0.2844877240876961E-01   8   7   8   7
  0.3446841951010965E+00   8   8   1   1
  0.3669541221953872E-01   8   8   2   1
  0.3920269108178635E+00   8   8   2   2
 -0.2528259220490289E-01   8   8   3   1
  0.5895903473280115E-01   8   8   3   2
  0.3601293496742834E+00   8   8   3   3
 -0.9734547229379081E-02   8   8   4   1
 -0.4557399710121801E-01   8   8   4   2
 -0.3122202393105292E-01   8   8   4   3
  0.2865599067889948E+00   8   8   4   4
 -0.3782886138143149E-02   8   8   5   1
  0.2535452469363708E-02   8   8   5   2
 -0.1904539248612411E-01   8   8   5   3
 -0.1120808755523484E-01   8   8   5   4
  0.3001273641035185E+00   8   8   5   5
  0.2252938299476336E-02   8   8   6   1
  0.4525687017279248E-02   8   8   6   2
 -0.3660399747502402E-02   8   8   6   3
 -0.3355111648448095E-01   8   8   6   4
  0.3535692200715701E-03   8   8   6   5
  0.3658522229338073E+00   8   8   6   6
  0.2428793569162720E-01   8   8   7   1
 -0.5806140349311317E-02   8   8   7   2
 -0.5270070423323241E-01   8   8   7   3
  0.2945330176329367E-01   8   8   7   4
  0.3700514527449339E-01   8   8   7   5
 -0.3869128003932229E-02   8   8   7   6
  0.4018787296409814E+00   8   8   7   7
 -0.1588290430915046E-01   8   8   8   1
 -0.3513790705151197E-01   8   8   8   2
 -0.2182847920850081E-01   8   8   8   3
  0.6416154067644797E-01   8   8   8   4
 -0.2876532117162922E-01   8   8   8   5
  0.3245513695397939E-03   8   8   8   6
  0.1032774952107041E-01   8   8   8   7
  0.3669833666557875E+00   8   8   8   8
  0.1978315328236152E-01   9   1   1   1
  0.2034235222555746E-01   9   1   2   1
 -0.2059224608997246E-02   9   1   2   2
 -0.3412298372233144E-01   9   1   3   1
  0.9425318958651991E-02   9   1   3   2
  0.6057905174223385E-02   9   1   3   3
  0.7938307368273237E-03   9   1   4   1
 -0.5364519106160271E-02   9   1   4   2
 -0.2200241162094446E-02   9   1   4   3
  0.9375614199659018E-03   9   1   4   4
 -0.4940742854508802E-02   9   1   5   1
 -0.4625659236125640E-02   9   1   5   2
  0.7000478162314487E-02   9   1   5   3
 -0.2503960585960729E-02   9   1   5   4
  0.4131476992676898E-03   9   1   5   5
 -0.1155965221743861E-02   9   1   6   1
  0.1191477660853793E-02   9   1   6   2
  0.1878785897482400E-02   9   1   6   3
 -0.1076875091935158E-02   9   1   6   4
  0.2245278381618606E-03   9   1   6   5
  0.6380821668392217E-03   9   1   6   6
  0.7993751547753333E-02   9   1   7   1
  0.5828485916057854E-02   9   1   7   2
 -0.1412540504815700E-01   9   1   7   3
  0.1758568769615848E-02   9   1   7   4
  0.8082536160636377E-02   9   1   7   5
  0.2321887225479527E-02   9   1   7   6
  0.2240919215821559E-01   9   1   7   7
  0.1929083371784891E-02   9   1   8   1
 -0.1159624003712026E-01   9   1   8   2
  0.2865829076066133E-02   9   1   8   3
  0.3642802483977130E-02   9   1   8   4
 -0.4983498972640603E-02   9   1   8   5
 -0.1936992346623147E-02   9   1   8   6
  0.1118726219390374E-03   9   1   8   7
  0.5768022348596570E-02   9   1   8   8
  0.2655470854282330E-01   9   1   9   1
  0.7284335098405216E-01   9   2   1   1
 -0.6054312884283052E-02   9   2   2   1
  0.5211456125862481E-01   9   2   2   2
 -0.6811454237808164E-02   9   2   3   1