 &FCI NORB= 23,NELEC=  8,MS2= 0,
  ORBSYM=1,1,1,1,1,1,1,1,1,1,1,1,1,1,1,1,1,1,1,1,1,1,1,
  ISYM=1,
  OCC=  4,  0,  0,  0,  0,  0,  0,  0,
  CLOSED=  4,  0,  0,  0,  0,  0,  0,  0,
  FOCK=    -20.664247973873,     -1.203153630979,     -0.507859856914,     -0.448525304166,     -0.435153468620,
      -0.007065811305,      0.029354977956,      0.601677895004,      0.645651244177,      1.143915277981,      1.198879778275,      1.217559235399,      1.300078510568,      1.453837797829,      1.463154931390,      1.505048297835,      1.531348087425,      1.769369948560,      2.055559800475,      2.956421081546,      2.964182607811,      2.964634056339,      3.025104669139,
 /
  0.7784836896442416E+00   1   1   1   1
 -0.3162984313809230E-15   2   1   1   1
  0.1533021403001917E+00   2   1   2   1
  0.7582220506384288E+00   2   2   1   1
 -0.4550550058551864E-15   2   2   2   1
  0.7960606780014159E+00   2   2   2   2
 -0.2014970788127141E-14   3   1   1   1
 -0.2462411864738262E-15   3   1   2   1
 -0.1954276359022666E-14   3   1   2   2
  0.9177858879030409E-01   3   1   3   1
 -0.9179006043414389E-15   3   2   1   1
 -0.5909573510703392E-15   3   2   2   1
 -0.1011313223716308E-14   3   2   2   2
  0.1403184792450562E-15   3   2   3   1
  0.2208353583146059E-01   3   2   3   2
  0.5421275613435868E+00   3   3   1   1
  0.4677079874460873E-16   3   3   2   1
  0.5142222633761188E+00   3   3   2   2
  0.1202813890155419E-14   3   3   3   1
 -0.3603709166641596E-15   3   3   3   2
  0.4632145547126490E+00   3   3   3   3
 -0.4897573418381308E-01   4   1   1   1
 -0.2880013497219470E-15   4   1   2   1
 -0.4886700744241270E-01   4   1   2   2
  0.3317116546719401E-15   4   1   3   1
  0.2972847992643373E-15   4   1   3   2
 -0.4487757919926133E-02   4   1   3   3
  0.1001431440022718E+00   4   1   4   1
 -0.1098868470955789E-14   4   2   1   1
 -0.1555551679420485E-01   4   2   2   1
 -0.1200108327535266E-14   4   2   2   2
  0.2299376997185781E-15   4   2   3   1
  0.1229704433373664E-15   4   2   3   2
 -0.3915179474251989E-15   4   2   3   3
  0.2326877097293783E-15   4   2   4   1
  0.2526224246383512E-01   4   2   4   2
  0.8990152325729253E-15   4   3   1   1
  0.3207577941657228E-15   4   3   2   1
  0.8581918886467504E-15   4   3   2   2
  0.1854712264511292E-01   4   3   3   1
  0.2082230626901625E-15   4   3   3   2
  0.3433936398882570E-14   4   3   3   3
 -0.1625307147982286E-14   4   3   4   1
  0.1249107685986417E-15   4   3   4   2
  0.5340445651879545E-01   4   3   4   3
  0.5641159556833724E+00   4   4   1   1
  0.8096240591628852E-16   4   4   2   1
  0.5354490012207933E+00   4   4   2   2
 -0.2597856825492517E-14   4   4   3   1
 -0.3826625925730215E-15   4   4   3   2
  0.4416634481105515E+00   4   4   3   3
 -0.2744967048581849E-01   4   4   4   1
 -0.5841211400341208E-15   4   4   4   2
 -0.2606422022655153E-14   4   4   4   3
  0.4813413387476281E+00   4   4   4   4
  0.6337132738275593E-01   5   1   1   1
  0.3951079149109634E-15   5   1   2   1
  0.6295000322628953E-01   5   1   2   2
  0.2291840762308484E-14   5   1   3   1
 -0.5096484060378490E-16   5   1   3   2
  0.3842594925274613E-01   5   1   3   3
  0.6375889192326824E-01   5   1   4   1
 -0.2051030856342291E-15   5   1   4   2
 -0.3860843936220881E-15   5   1   4   3
  0.2739137941885694E-01   5   1   4   4
  0.6419468903282453E-01   5   1   5   1
  0.1379192434233546E-14   5   2   1   1
  0.1938738235495430E-01   5   2   2   1
  0.1489664408009125E-14   5   2   2   2
 -0.1087906552424648E-15   5   2   3   1
  0.5741052997124699E-15   5   2   3   2
  0.5617291813830436E-15   5   2   3   3
 -0.3221581479847712E-15   5   2   4   1
  0.1602361767511003E-01   5   2   4   2
 -0.1656572794820791E-15   5   2   4   3
  0.5845926683612249E-15   5   2   4   4
  0.1603298712750048E-15   5   2   5   1
  0.1809345907848943E-01   5   2   5   2
  0.7803343772166699E-14   5   3   1   1
 -0.2005079604795956E-15   5   3   2   1
  0.7223151846903519E-14   5   3   2   2
 -0.1235732456509733E-01   5   3   3   1
 -0.1971554960307850E-15   5   3   3   2
  0.6044767623896969E-15   5   3   3   3
 -0.6788189801931743E-15   5   3   4   1
 -0.2051845044500604E-15   5   3   4   2
 -0.3040247523240611E-01   5   3   4   3
  0.6816935972296586E-14   5   3   4   4
  0.8779056041158251E-15   5   3   5   1
  0.1228391949153881E-15   5   3   5   2
  0.5232718410356627E-01   5   3   5   3
  0.2163428863915501E+00   5   4   1   1
 -0.3620783318838429E-15   5   4   2   1
  0.2009022057912074E+00   5   4   2   2
 -0.6971453850399684E-15   5   4   3   1
 -0.5093503217847947E-15   5   4   3   2
  0.8619524532855104E-01   5   4   3   3
 -0.3282010779950599E-01   5   4   4   1
 -0.5598261139400140E-15   5   4   4   2
  0.2672287304633647E-14   5   4   4   3
  0.1208761370625976E+00   5   4   4   4
  0.2530363951237743E-01   5   4   5   1
  0.6890814880945162E-15   5   4   5   2
  0.2406278301614329E-14   5   4   5   3
  0.1274283683626545E+00   5   4   5   4
  0.4569687690585014E+00   5   5   1   1
  0.1344404761394403E-15   5   5   2   1
  0.4367594001476712E+00   5   5   2   2
  0.2525106859718740E-15   5   5   3   1
 -0.1589356662456482E-15   5   5   3   2
  0.3902671973874036E+00   5   5   3   3
  0.1307501503549438E-01   5   5   4   1
 -0.1390620652199772E-15   5   5   4   2
  0.2610758831345095E-15   5   5   4   3
  0.4064029032676775E+00   5   5   4   4
  0.4074029628178050E-01   5   5   5   1
  0.4321833704264623E-15   5   5   5   2
  0.2726985304235541E-14   5   5   5   3
  0.6544151579942989E-01   5   5   5   4
  0.3772958599124170E+00   5   5   5   5
  0.1721253380414214E-15   6   1   1   1
  0.3216658545737496E-15   6   1   2   1
  0.1938909835550505E-15   6   1   2   2
  0.7135930982020236E-01   6   1   3   1
 -0.1540547748443133E-16   6   1   3   2
 -0.9863944832048195E-16   6   1   3   3
 -0.2604634359619972E-14   6   1   4   1
  0.1438101254043903E-16   6   1   4   2
 -0.2523914340913553E-02   6   1   4   3
  0.2816838993887949E-15   6   1   4   4
 -0.5136407792150077E-17   6   1   5   1
  0.1482626192883594E-16   6   1   5   2
  0.3797595116064055E-02   6   1   5   3
 -0.5210269065150652E-16   6   1   5   4
  0.1038754746914266E-15   6   1   5   5
  0.6210080488591297E-01   6   1   6   1
  0.1107705786366012E-14   6   2   1   1
  0.6467195813960089E-16   6   2   2   1
  0.1209682987563810E-14   6   2   2   2
 -0.1839210605185457E-15   6   2   3   1
  0.1867313375307982E-01   6   2   3   2
  0.4061778882227251E-15   6   2   3   3
 -0.1606608731032930E-15   6   2   4   1
 -0.6895904731902806E-15   6   2   4   2
 -0.2712425057562592E-15   6   2   4   3
  0.5391053713598918E-15   6   2   4   4
  0.1135036793616559E-15   6   2   5   1
  0.1963607660192680E-17   6   2   5   2
  0.2912574702040764E-15   6   2   5   3
  0.5195914692778670E-15   6   2   5   4
  0.3148248374461601E-15   6   2   5   5
 -0.9466541086259841E-16   6   2   6   1
  0.1666568322136132E-01   6   2   6   2
  0.2295343861060181E+00   6   3   1   1
 -0.2917072520961746E-15   6   3   2   1
  0.2136855627611462E+00   6   3   2   2
 -0.2589962478424107E-14   6   3   3   1
 -0.5339566839386931E-15   6   3   3   2
  0.1130252398738180E+00   6   3   3   3
 -0.3744509716417609E-01   6   3   4   1
 -0.6262846304166472E-15   6   3   4   2
 -0.1350753276591066E-14   6   3   4   3
  0.1069363900365344E+00   6   3   4   4
  0.2355988935483977E-01   6   3   5   1
  0.7242617665740084E-15   6   3   5   2
  0.6154582052331214E-14   6   3   5   3
  0.1160075129229329E+00   6   3   5   4
  0.5450428186535024E-01   6   3   5   5
 -0.3645833092889850E-15   6   3   6   1
  0.5530546903295621E-15   6   3   6   2
  0.1401849822493533E+00   6   3   6   3
 -0.8297479602038364E-14   6   4   1   1
 -0.2163965965944844E-15   6   4   2   1
 -0.7741064689830920E-14   6   4   2   2
 -0.2751585205698643E-01   6   4   3   1
 -0.2893348267942526E-15   6   4   3   2
 -0.6232573851385909E-14   6   4   3   3
  0.2457884630958744E-14   6   4   4   1
 -0.1279244754623910E-15   6   4   4   2
 -0.2689303702190844E-01   6   4   4   3
 -0.1627317048725713E-14   6   4   4   4
 -0.8563435334105196E-15   6   4   5   1
  0.1803392290228600E-15   6   4   5   2
  0.4869676431792046E-01   6   4   5   3
 -0.6326617832050352E-14   6   4   5   4
 -0.1512995731075593E-14   6   4   5   5
 -0.1087166238327335E-01   6   4   6   1
  0.2037311746327812E-15   6   4   6   2
 -0.3138819499454160E-14   6   4   6   3
  0.5023740318783365E-01   6   4   6   4
 -0.1581151972306181E-15   6   5   1   1
  0.2153170708337378E-15   6   5   2   1
 -0.1150528216699409E-15   6   5   2   2
  0.2920528342959568E-01   6   5   3   1
  0.3664950448916683E-15   6   5   3   2
  0.4354565297550599E-14   6   5   3   3
 -0.1106313120540631E-14   6   5   4   1
  0.2619788474568389E-15   6   5   4   2
  0.5767558611426153E-01   6   5   4   3
 -0.4683787987080767E-14   6   5   4   4
  0.6730184985703769E-16   6   5   5   1
 -0.1609392023067212E-15   6   5   5   2
 -0.4680308729907790E-01   6   5   5   3
  0.2122596803183496E-14   6   5   5   4
 -0.6644587200350234E-15   6   5   5   5
  0.5254722769607060E-02   6   5   6   1
 -0.2737981752514178E-15   6   5   6   2
 -0.1890442013000038E-14   6   5   6   3
 -0.4589738692743323E-01   6   5   6   4
  0.7751790079858724E-01   6   5   6   5
  0.4625870561747273E+00   6   6   1   1
 -0.3994741117303265E-16   6   6   2   1
  0.4407341672869365E+00   6   6   2   2
 -0.2509385928217700E-15   6   6   3   1
 -0.1030377253634130E-15   6   6   3   2
  0.4098616355772717E+00   6   6   3   3
 -0.7831210786100096E-02   6   6   4   1
 -0.2303228840976884E-15   6   6   4   2
 -0.3408731630294426E-15   6   6   4   3
  0.3956784486538733E+00   6   6   4   4
  0.2444753263220727E-01   6   6   5   1
  0.3396281916373123E-15   6   6   5   2
  0.1655793557819862E-14   6   6   5   3
  0.5125947092145838E-01   6   6   5   4
  0.3649988094457963E+00   6   6   5   5
  0.1401873409023757E-15   6   6   6   1
  0.3971323106730582E-15   6   6   6   2
  0.7082067811452741E-01   6   6   6   3
 -0.2641983853912677E-14   6   6   6   4
  0.5377642775528102E-16   6   6   6   5
  0.3841695622280615E+00   6   6   6   6
 -0.1083773037975519E-01   7   1   1   1
  0.5135499917612682E-16   7   1   2   1
 -0.8312744819146255E-02   7   1   2   2
 -0.3986780794818651E-15   7   1   3   1
 -0.1334866959207222E-16   7   1   3   2
 -0.1050040772470314E-01   7   1   3   3
  0.1015300052683599E-01   7   1   4   1
 -0.2932478562735550E-16   7   1   4   2
  0.8839432549638537E-15   7   1   4   3
 -0.1179005748902650E-01   7   1   4   4
  0.7548097189578709E-02   7   1   5   1
 -0.8573581261503015E-17   7   1   5   2
 -0.7017159748233526E-15   7   1   5   3
  0.3251198517207061E-03   7   1   5   4
 -0.6948418208583733E-02   7   1   5   5
 -0.1044876126810382E-14   7   1   6   1
 -0.1996984475812426E-16   7   1   6   2
 -0.6182513912623036E-03   7   1   6   3
 -0.4115157108304512E-15   7   1   6   4
  0.8133142596900012E-15   7   1   6   5
 -0.1059147612264382E-01   7   1   6   6
  0.3005240696407455E-02   7   1   7   1
  0.1070738480657415E-15   7   2   1   1
  0.3642752359840976E-02   7   2   2   1
  0.1573335818537014E-15   7   2   2   2
 -0.8827247649944863E-16   7   2   3   1
 -0.2773552740455859E-15   7   2   3   2
 -0.1184531242583028E-15   7   2   3   3
 -0.1145215220931975E-15   7   2   4   1
  0.3387927626215650E-02   7   2   4   2
 -0.1202682899812034E-15   7   2   4   3
 -0.8457410025930828E-16   7   2   4   4
  0.3312330563048717E-17   7   2   5   1
  0.2525286691327971E-02   7   2   5   2
  0.7976146143643311E-16   7   2   5   3
  0.1815223760895695E-15   7   2   5   4
 -0.1185418753983151E-15   7   2   5   5
 -0.2853801678451499E-16   7   2   6   1
 -0.3438923060908121E-15   7   2   6   2
  0.1876318649512790E-15   7   2   6   3
  0.9226645607013771E-16   7   2   6   4
 -0.1178746303583913E-15   7   2   6   5
 -0.1378928266493455E-15   7   2   6   6
  0.2611662174789546E-16   7   2   7   1
  0.1398692143273359E-02   7   2   7   2
  0.1678125860630381E-15   7   3   1   1
 -0.1491543269359095E-15   7   3   2   1
 -0.5977860276251702E-16   7   3   2   2
 -0.1402520832383999E-01   7   3   3   1
 -0.1889055843663823E-15   7   3   3   2
  0.7162153333813652E-15   7   3   3   3
  0.2112916910662274E-14   7   3   4   1
 -0.1521909285740443E-15   7   3   4   2
 -0.2845200116944200E-01   7   3   4   3
  0.5291811529011024E-14   7   3   4   4
  0.3642241673193491E-17   7   3   5   1
  0.8049515151892755E-16   7   3   5   2
  0.2871685905785704E-01   7   3   5   3
 -0.3710099176663928E-14   7   3   5   4
  0.3613266891817621E-14   7   3   5   5
 -0.1032795938108486E-02   7   3   6   1
  0.1660676439123039E-15   7   3   6   2
 -0.1939732554266660E-14   7   3   6   3
  0.2832799286476254E-01   7   3   6   4
 -0.3420318287419611E-01   7   3   6   5
  0.2944427887219601E-14   7   3   6   6
 -0.1282313014452918E-14   7   3   7   1
  0.1164606771947395E-15   7   3   7   2
  0.3401224914319411E-01   7   3   7   3
  0.2117921678399020E-01   7   4   1   1
 -0.1368606631768386E-15   7   4   2   1
  0.2165767889001583E-01   7   4   2   2
  0.2090541688327605E-14   7   4   3   1
 -0.1935532068617010E-15   7   4   3   2
 -0.1781861695695064E-01   7   4   3   3
 -0.1269176712131338E-01   7   4   4   1
 -0.1904446122746490E-15   7   4   4   2
  0.5013025584921227E-14   7   4   4   3
 -0.6157508835815282E-02   7   4   4   4
  0.3935207603322046E-02   7   4   5   1
  0.1923833100670443E-15   7   4   5   2
 -0.3285999944369067E-14   7   4   5   3
  0.3427529212949052E-01   7   4   5   4
 -0.1833725257821214E-01   7   4   5   5
  0.3727893644819846E-15   7   4   6   1
  0.1246758949255934E-15   7   4   6   2
  0.3323036776339781E-01   7   4   6   3
 -0.5786983305750004E-14   7   4   6   4
  0.5343381986877560E-14   7   4   6   5
 -0.2135003896089381E-01   7   4   6   6
  0.4351400730944544E-02   7   4   7   1
  0.1755806870653835E-15   7   4   7   2
 -0.8596422185203068E-14   7   4   7   3
  0.3086462318995580E-01   7   4   7   4
  0.5342647289733572E-01   7   5   1   1
  0.3462814193052747E-16   7   5   2   1
  0.4848597249748167E-01   7   5   2   2
 -0.9853635919362946E-15   7   5   3   1
  0.5683154131216340E-16   7   5   3   2
  0.5969205151689137E-01   7   5   3   3
  0.6204824844058808E-02   7   5   4   1
  0.7589733841787158E-16   7   5   4   2
 -0.3200673233394458E-14   7   5   4   3
  0.5907609143827541E-01   7   5   4   4
  0.4391483087525473E-02   7   5   5   1
 -0.2456084582711207E-16   7   5   5   2
  0.2512746954952405E-14   7   5   5   3
 -0.4955973793150530E-02   7   5   5   4
  0.5667541409091006E-01   7   5   5   5
  0.1914429986066279E-15   7   5   6   1
 -0.5210210751157213E-17   7   5   6   2
 -0.8164954261689315E-02   7   5   6   3
  0.3000854773005379E-14   7   5   6   4
 -0.3521054975363924E-14   7   5   6   5
  0.5629515535686965E-01   7   5   6   6
 -0.6423694974648310E-02   7   5   7   1
 -0.1784556335061707E-15   7   5   7   2
  0.7708894286806434E-14   7   5   7   3
 -0.2873613020099521E-01   7   5   7   4
  0.3992928759805103E-01   7   5   7   5
 -0.8346796015012616E-14   7   6   1   1
  0.5330325469290056E-16   7   6   2   1
 -0.7679575600253918E-14   7   6   2   2
  0.1024447255439980E-01   7   6   3   1
  0.1839714074559029E-15   7   6   3   2
 -0.6668144781030648E-14   7   6   3   3
 -0.9170724075968639E-15   7   6   4   1
  0.1275305460416682E-15   7   6   4   2
  0.2893591906871467E-01   7   6   4   3
 -0.1067072137194109E-13   7   6   4   4
 -0.4032859387149285E-15   7   6   5   1
 -0.9684226831803199E-16   7   6   5   2
 -0.2695815721718752E-01   7   6   5   3
  0.1569938298286166E-14   7   6   5   4
 -0.7828245390115142E-14   7   6   5   5
 -0.2020527525374760E-02   7   6   6   1
 -0.1525865356025517E-15   7   6   6   2
 -0.8707498697774207E-15   7   6   6   3
 -0.2524695277639078E-01   7   6   6   4
  0.3342806816575070E-01   7   6   6   5
 -0.8046596955781104E-14   7   6   6   6
  0.1785789398300874E-14   7   6   7   1
 -0.1270405440294099E-15   7   6   7   2
 -0.3432407827593051E-01   7   6   7   3
  0.9548893793731583E-14   7   6   7   4
 -0.1028344076559051E-13   7   6   7   5
  0.3780485325915038E-01   7   6   7   6
  0.2672149038490382E+00   7   7   1   1
  0.2560695430741131E-15   7   7   2   1
  0.2595672848195243E+00   7   7   2   2
 -0.9848079383228958E-14   7   7   3   1
  0.2542181649351430E-15   7   7   3   2
  0.3096454657112683E+00   7   7   3   3
  0.2654133719493073E-01   7   7   4   1
  0.2798466457041006E-15   7   7   4   2
 -0.2199108950495798E-13   7   7   4   3
  0.3021301595925253E+00   7   7   4   4
  0.6710053472862132E-02   7   7   5   1
 -0.2332332058589288E-15   7   7   5   2
  0.2163026702195481E-13   7   7   5   3
 -0.4011663786425602E-01   7   7   5   4
  0.3084097474355230E+00   7   7   5   5
 -0.8249694330442203E-15   7   7   6   1
 -0.1262676927301808E-15   7   7   6   2
 -0.4182879465837499E-01   7   7   6   3
  0.2382382485732748E-13   7   7   6   4
 -0.2933937814919574E-13   7   7   6   5
  0.3101250417122178E+00   7   7   6   6
 -0.1023834166406286E-01   7   7   7   1
 -0.3166059589530711E-15   7   7   7   2
  0.2399122567275924E-13   7   7   7   3
 -0.5335862056234184E-01   7   7   7   4
  0.6755279515602053E-01   7   7   7   5
 -0.2598962711708452E-13   7   7   7   6
  0.3512119479319648E+00   7   7   7   7
 -0.1015895761373518E-14   8   1   1   1
 -0.5245496265764870E-17   8   1   2   1
 -0.7334138607218960E-15   8   1   2   2
  0.7324620029797981E-02   8   1   3   1
 -0.7143083522155226E-16   8   1   3   2
 -0.1804956917851802E-14   8   1   3   3
  0.1079163808756999E-14   8   1   4   1
 -0.2921153206101309E-16   8   1   4   2
 -0.6399884191562839E-02   8   1   4   3
 -0.8711142352033152E-15   8   1   4   4
  0.1112297408312982E-14   8   1   5   1
  0.7731101153109028E-17   8   1   5   2
  0.4630927284384544E-02   8   1   5   3
  0.5563312397566245E-16   8   1   5   4
 -0.7029083107556734E-15   8   1   5   5
  0.8698845140931839E-02   8   1   6   1
 -0.1568853922429103E-16   8   1   6   2
  0.1634163724478777E-15   8   1   6   3
  0.2296179120570948E-02   8   1   6   4
 -0.5032204200324102E-02   8   1   6   5
 -0.1283894810229512E-14   8   1   6   6
  0.6399164509916788E-16   8   1   7   1
  0.1805846928436169E-16   8   1   7   2
  0.5571828703002673E-02   8   1   7   3
 -0.2205809319921759E-15   8   1   7   4
 -0.1134346522962959E-15   8   1   7   5
 -0.6039703441488440E-02   8   1   7   6
  0.1154440222892804E-14   8   1   7   7
  0.2444769029268556E-02   8   1   8   1
 -0.2749971047068253E-16   8   2   1   1
  0.5901704653205558E-15   8   2   2   1
  0.1602962199116434E-16   8   2   2   2
 -0.1632844866322370E-15   8   2   3   1
  0.3291955253625375E-02   8   2   3   2
 -0.1631073007489750E-15   8   2   3   3
 -0.7031976007336682E-16   8   2   4   1
  0.3278194456350780E-15   8   2   4   2
 -0.1860055670054216E-15   8   2   4   3
 -0.1218793326101481E-15   8   2   4   4
 -0.1553951237140571E-16   8   2   5   1
  0.3742641811920524E-15   8   2   5   2
  0.1582530532547629E-15   8   2   5   3
  0.8764009012003119E-16   8   2   5   4
 -0.1342480910610429E-15   8   2   5   5
 -0.7626392124985864E-16   8   2   6   1
  0.2802711121100758E-02   8   2   6   2
  0.9041201640696163E-16   8   2   6   3
  0.1542038220439999E-15   8   2   6   4
 -0.1951755061466496E-15   8   2   6   5
 -0.1215493858510750E-15   8   2   6   6
  0.1739578878683276E-16   8   2   7   1
  0.9702614180032241E-16   8   2   7   2
  0.1927274371380410E-15   8   2   7   3
  0.1123087372257047E-15   8   2   7   4
 -0.1239541082212613E-15   8   2   7   5
 -0.1944439845586036E-15   8   2   7   6
 -0.2373164211109094E-15   8   2   7   7
  0.1903216574580172E-16   8   2   8   1
  0.6270571803467427E-03   8   2   8   2
  0.9744572540811094E-02   8   3   1   1
 -0.1940459377742607E-15   8   3   2   1
  0.1136080030409854E-01   8   3   2   2
 -0.3275361210551553E-14   8   3   3   1
 -0.1970554913796625E-15   8   3   3   2
 -0.2377833995278228E-01   8   3   3   3
 -0.1565016725682024E-01   8   3   4   1
 -0.2019808771017480E-15   8   3   4   2
 -0.5053737376498058E-14   8   3   4   3
 -0.2102563142315099E-01   8   3   4   4
  0.1133079397544817E-02   8   3   5   1
  0.1686649509257252E-15   8   3   5   2
  0.6243269790040529E-14   8   3   5   3
  0.2959846139966340E-01   8   3   5   4
 -0.2785448344845504E-01   8   3   5   5
 -0.2802527090603468E-15   8   3   6   1
  0.1131584468915374E-15   8   3   6   2
  0.3416644160506718E-01   8   3   6   3
  0.3780612975456954E-14   8   3   6   4
 -0.5987398077333950E-14   8   3   6   5
 -0.2552724984357554E-01   8   3   6   6
  0.4719687371297093E-02   8   3   7   1
  0.1802041268714486E-15   8   3   7   2
  0.2653259556506526E-14   8   3   7   3
  0.3040421633498514E-01   8   3   7   4
 -0.3165194518642754E-01   8   3   7   5
 -0.1852034151039739E-14   8   3   7   6
 -0.6141487405004284E-01   8   3   7   7
  0.1753263333126309E-14   8   3   8   1
  0.1247352475288363E-15   8   3   8   2
  0.3365620301289315E-01   8   3   8   3
  0.2334011392524810E-14   8   4   1   1
 -0.1214808416203067E-15   8   4   2   1
  0.2319278685637785E-14   8   4   2   2
 -0.1491123185654514E-01   8   4   3   1
 -0.1850731678992047E-15   8   4   3   2
 -0.3786964690220234E-14   8   4   3   3
 -0.5865753981712865E-15   8   4   4   1
 -0.1229780696183422E-15   8   4   4   2
 -0.2472705827680413E-01   8   4   4   3
  0.1655524778556997E-14   8   4   4   4
  0.4815483949094368E-15   8   4   5   1
  0.8024184159584742E-16   8   4   5   2
  0.2484554733269679E-01   8   4   5   3
  0.2557795555219178E-14   8   4   5   4
 -0.1434348247155219E-14   8   4   5   5
 -0.2911783952243538E-02   8   4   6   1
  0.1329375979153572E-15   8   4   6   2
  0.4313430580597799E-14   8   4   6   3
  0.2483934133639827E-01   8   4   6   4
 -0.2818088978565755E-01   8   4   6   5
 -0.2171176928771860E-14   8   4   6   6
 -0.2591243192240356E-15   8   4   7   1
  0.1120455621667019E-15   8   4   7   2
  0.3041913851093095E-01   8   4   7   3
 -0.1928036723330973E-14   8   4   7   4
  0.1291935308733727E-14   8   4   7   5
 -0.3118844144636367E-01   8   4   7   6
  0.9781111186245654E-14   8   4   7   7
  0.4850201878012307E-02   8   4   8   1
  0.1754595790656401E-15   8   4   8   2
  0.8465125302115073E-14   8   4   8   3
  0.2804941100925855E-01   8   4   8   4
  0.7515404121149023E-14   8   5   1   1
  0.4938867405765599E-16   8   5   2   1
  0.6856070850773020E-14   8   5   2   2
  0.8264186458113262E-02   8   5   3   1
  0.1420965337149892E-15   8   5   3   2
  0.1012192725740693E-13   8   5   3   3
  0.5042133025120674E-15   8   5   4   1
  0.9999526639553551E-16   8   5   4   2
  0.2248787105019339E-01   8   5   4   3
  0.6479035118594126E-14   8   5   4   4
  0.6567554659830943E-15   8   5   5   1
 -0.6490454303252754E-16   8   5   5   2
 -0.1851770064111197E-01   8   5   5   3
  0.2380230344420364E-15   8   5   5   4
  0.7699505919682268E-14   8   5   5   5
 -0.1098087674215133E-02   8   5   6   1
 -0.1111005499641326E-15   8   5   6   2
 -0.1743288673139443E-14   8   5   6   3
 -0.1798158436645735E-01   8   5   6   4
  0.2356002159465190E-01   8   5   6   5
  0.7754807642943203E-14   8   5   6   6
 -0.5524010068813645E-16   8   5   7   1
 -0.1160988765349066E-15   8   5   7   2
 -0.3098465294657747E-01   8   5   7   3
  0.1245639875968596E-14   8   5   7   4
  0.8140189911021167E-15   8   5   7   5
  0.3401363061753084E-01   8   5   7   6
 -0.3283699705471410E-14   8   5   7   7
 -0.5432126753102038E-02   8   5   8   1
 -0.1770573239490701E-15   8   5   8   2
 -0.9915245707814435E-14   8   5   8   3
 -0.2852026792422193E-01   8   5   8   4
  0.3245102984483429E-01   8   5   8   5
  0.6359164220730291E-01   8   6   1   1
 -0.2164504768547501E-16   8   6   2   1
  0.5850050042894196E-01   8   6   2   2
  0.1485831314755603E-14   8   6   3   1
  0.4121288551627254E-16   8   6   3   2
  0.6673264410791863E-01   8   6   3   3
  0.2734576261663396E-02   8   6   4   1
  0.4379416852962925E-16   8   6   4   2
  0.3772915140032307E-14   8   6   4   3
  0.6245219784282399E-01   8   6   4   4
  0.3290652254518553E-02   8   6   5   1
 -0.5170263618938201E-17   8   6   5   2
 -0.3633378320433422E-14   8   6   5   3
 -0.9505695300200453E-03   8   6   5   4
  0.5550626874502117E-01   8   6   5   5
 -0.2150786059668119E-15   8   6   6   1
  0.2979177694160254E-16   8   6   6   2
  0.1189587906778710E-02   8   6   6   3
 -0.3338475329517365E-14   8   6   6   4
  0.4354589605570780E-14   8   6   6   5
  0.5913865256282112E-01   8   6   6   6
 -0.6339716420484445E-02   8   6   7   1
 -0.1675802892786111E-15   8   6   7   2
 -0.1557564840992676E-14   8   6   7   3
 -0.2743348188780954E-01   8   6   7   4
  0.3861220360038289E-01   8   6   7   5
 -0.3512815038853034E-15   8   6   7   6
  0.6584888097664955E-01   8   6   7   7
 -0.1762533261701060E-14   8   6   8   1
 -0.1205152427804606E-15   8   6   8   2
 -0.3042557493734617E-01   8   6   8   3
 -0.7098922144566089E-14   8   6   8   4
  0.1007657499108028E-13   8   6   8   5
  0.4009790787569895E-01   8   6   8   6
  0.1948990170797283E-14   8   7   1   1
  0.3271902109201314E-15   8   7   2   1
  0.1852723361557343E-14   8   7   2   2
  0.3836402218859411E-01   8   7   3   1
  0.4958476883308176E-15   8   7   3   2
  0.7600169323417448E-14   8   7   3   3
 -0.1288682702216271E-14   8   7   4   1
  0.3470865789404464E-15   8   7   4   2
  0.7738590770341425E-01   8   7   4   3
 -0.4238062434982597E-14   8   7   4   4
  0.2924499835008088E-15   8   7   5   1
 -0.2970309136451560E-15   8   7   5   2
 -0.8225403743963677E-01   8   7   5   3
  0.3851086116668512E-14   8   7   5   4
  0.7192456865075717E-15   8   7   5   5
  0.3010630465195768E-02   8   7   6   1
 -0.4713329849908277E-15   8   7   6   2
 -0.3114696001116357E-14   8   7   6   3
 -0.7887885382403438E-01   8   7   6   4
  0.1036754249087683E+00   8   7   6   5
  0.1443267740835210E-14   8   7   6   6
  0.1638392112951470E-14   8   7   7   1
 -0.2122752612460617E-15   8   7   7   2
 -0.6241778874151852E-01   8   7   7   3
  0.1004144684069175E-13   8   7   7   4
 -0.6163038829276601E-14   8   7   7   5
  0.6029945834257308E-01   8   7   7   6
 -0.4951222332001691E-13   8   7   7   7
 -0.9923211573327744E-02   8   7   8   1
 -0.3592095297714740E-15   8   7   8   2
 -0.1136720925720702E-13   8   7   8   3
 -0.5438027836404528E-01   8   7   8   4
  0.4601702671364444E-01   8   7   8   5
  0.8790277533643476E-14   8   7   8   6
  0.1745797268289505E+00   8   7   8   7
  0.2547454055640966E+00   8   8   1   1
  0.2210058928778254E-15   8   8   2   1
  0.2471667650822263E+00   8   8   2   2
  0.1193175332842022E-13   8   8   3   1
  0.2708840796954279E-15   8   8   3   2
  0.3005415117040181E+00   8   8   3   3
  0.2550751551138542E-01   8   8   4   1
  0.2809440808229130E-15   8   8   4   2
  0.2156651593421266E-13   8   8   4   3
  0.2899553357833723E+00   8   8   4   4
  0.5293809860865957E-02   8   8   5   1
 -0.2525974057515855E-15   8   8   5   2
 -0.2486205685769960E-13   8   8   5   3
 -0.4306284837789537E-01   8   8   5   4
  0.2995258296311354E+00   8   8   5   5
  0.1001369126507612E-14   8   8   6   1
 -0.1328141008303751E-15   8   8   6   2
 -0.4392565304376713E-01   8   8   6   3
 -0.2056167736075309E-13   8   8   6   4
  0.2916417107812208E-13   8   8   6   5
  0.3029517206521404E+00   8   8   6   6
 -0.1036478065333142E-01   8   8   7   1
 -0.3208097010564546E-15   8   8   7   2
 -0.1181867104182999E-13   8   8   7   3
 -0.5328618272755667E-01   8   8   7   4
  0.6474039343530807E-01   8   8   7   5
  0.8354428260304303E-14   8   8   7   6
  0.3431393532286779E+00   8   8   7   7
 -0.4375839968151496E-14   8   8   8   1
 -0.2282419711484824E-15   8   8   8   2
 -0.5910392351749122E-01   8   8   8   3
 -0.2099015405931937E-13   8   8   8   4
  0.2181241298693237E-13   8   8   8   5
  0.6165092901309099E-01   8   8   8   6
  0.5338784969666222E-13   8   8   8   7
  0.3390700210627452E+00   8   8   8   8
  0.6016314102347014E-15   9   1   1   1
 -0.4306047033191030E-01   9   1   2   1
  0.6951617003648457E-15   9   1   2   2
  0.2640218594326287E-15   9   1   3   1
  0.2969140588910757E-15   9   1   3   2
  0.2665110190285079E-15   9   1   3   3
  0.6395265345934640E-15   9   1   4   1
  0.7843506297899545E-02   9   1   4   2
 -0.2210254396470223E-16   9   1   4   3
  0.5516792427038707E-16   9   1   4   4
  0.4917478656776835E-15   9   1   5   1
 -0.8229056978607374E-02   9   1   5   2
  0.7978602879454256E-17   9   1   5   3
  0.3389917262897125E-15   9   1   5   4
  0.3516273755710575E-15   9   1   5   5
  0.1820463006786980E-16   9   1   6   1
 -0.4154484848045530E-16   9   1   6   2
  0.2842434160869880E-15   9   1   6   3
 -0.3287047440495885E-16   9   1   6   4
  0.3884703356873426E-16   9   1   6   5
  0.2286372647499427E-15   9   1   6   6
  0.7601840738785831E-16   9   1   7   1
  0.2440108988398232E-02   9   1   7   2
 -0.3478413169481383E-16   9   1   7   3
  0.1554167909774137E-16   9   1   7   4
  0.3553070217960052E-16   9   1   7   5
  0.1397681991787226E-16   9   1   7   6
 -0.2981867869624764E-16   9   1   7   7
  0.8910478637769637E-17   9   1   8   1
  0.1812709799430511E-15   9   1   8   2
  0.7029334600132208E-16   9   1   8   3
 -0.2027703032977466E-16   9   1   8   4
  0.1608843235767688E-16   9   1   8   5
  0.4327976938593655E-16   9   1   8   6
  0.5563992044043607E-16   9   1   8   7
 -0.2231199994011258E-16   9   1   8   8
  0.3635152295787739E-01   9   1   9   1
 -0.1928961345029146E+00   9   2   1   1
  0.4058399898641428E-15   9   2   2   1
 -0.2043373219787301E+00   9   2   2   2
  0.9651432214194400E-15   9   2   3   1
  0.5094274429153285E-15   9   2   3   2
 -0.9344529622733629E-01   9   2   3   3
  0.2460575856908460E-01   9   2   4   1
  0.6360458669094079E-15   9   2   4   2
 -0.4387224090962594E-15   9   2   4   3
 -0.1037032341699683E+00   9   2   4   4
 -0.2688048306645821E-01   9   2   5   1
 -0.3901587485806810E-15   9   2   5   2